25
 energy: -43.833753825667 gnorm: 0.111970494901 xtb: 6.6.1 (8d0f1dd)
C            3.24433557783057        1.16565911363369        0.08374536713590
N            2.30352260626705        0.07898322142718        0.03956390505222
C            2.58887805694881       -1.22156296187285        0.02898780362390
N            1.43838756184967       -1.93919616160868        0.00127174782268
C            0.39561430692163       -1.06039572640586       -0.00526918150204
C            0.93602745838266        0.21539710357218        0.02250724525920
C            0.09731872713653        1.39864569946165        0.00257515785633
O            0.50237514915997        2.54961415414897        0.00556036827786
N           -1.26793769346272        1.05488905850176       -0.04455806592411
C           -2.23913300111442        2.15791766731049       -0.07550459591488
C           -1.81858312543444       -0.20523924078861       -0.03966817076233
O           -3.00780917726527       -0.38719794342855       -0.06105246404410
N           -0.92533441482071       -1.30491936809033       -0.03004491779347
C           -1.46503637875144       -2.64870669603440       -0.05598452769119
H            3.72031631750970        1.21341960522290        1.06464674026652
H            4.01543620789865        1.02937909435213       -0.67590073785931
H            2.70778043928224        2.09448150741691       -0.09408481552118
H            3.57288470410209       -1.64477266795601        0.03894268908329
H           -1.67033730527531        3.08484831969367        0.00607970040537
H           -2.87518516098949        2.18313895678171       -0.96756108389971
H           -2.90503410217259        2.05875199907448        0.77730615538951
H           -1.16436937772764       -3.19908721813570        0.83584752947135
H           -1.13858411425268       -3.17709722711026       -0.95278605827938
H           -2.55100484883615       -2.56050047887698       -0.07113842865347
H            1.37698680620610       -2.94873399082297       -0.01479088161456
25
 energy: -43.838021159193 gnorm: 0.040661852185 xtb: 6.6.1 (8d0f1dd)
C            3.24844902487209        1.17537268373999        0.08606190207331
N            2.30827223874360        0.09710436573033        0.03734881457902
C            2.60068228118093       -1.23486392844161        0.02941640339346
N            1.42586813040638       -1.93998778114122        0.00107833828442
C            0.39697911937672       -1.05568287822169       -0.00713214478332
C            0.92783844019565        0.22547385948306        0.01686140370312
C            0.09942888264802        1.39260262949276       -0.00698978657872
O            0.49246905399124        2.56258809984805        0.00311309099243
N           -1.27503610753470        1.04795011745584       -0.04933832267971
C           -2.23225023817338        2.15071989324845       -0.06036476802516
C           -1.82628286890807       -0.20362696721548       -0.04884237392656
O           -3.02362986133925       -0.39182298098561       -0.06148208645482
N           -0.93510039554034       -1.30144768195617       -0.03260470151700
C           -1.46796764405346       -2.64459818546736       -0.05545095797663
H            3.72808417625635        1.22164810742234        1.06774823501822
H            4.01699027393317        1.03743154302298       -0.67700603252696
H            2.70497021292440        2.10077734914374       -0.09116831451155
H            3.57810521232158       -1.66235064490997        0.04038470053407
H           -1.65673105903947        3.07285318645997        0.00608994360540
H           -2.83703712290394        2.15094669695261       -0.97034598889565
H           -2.90555822982433        2.05810060726458        0.79122076527229
H           -1.16326464551430       -3.19597267016464        0.83633803405922
H           -1.13691147156554       -3.17486346749578       -0.95101165680503
H           -2.55351070309068       -2.55653168466376       -0.07101972103730
H            1.35665852003014       -2.94410444913490       -0.01421429561215
25
 energy: -43.838826233523 gnorm: 0.018869197762 xtb: 6.6.1 (8d0f1dd)
C            3.24911627567307        1.17049385653622        0.08445937676270
N            2.30762294216703        0.10444255880123        0.03729507422822
C            2.61044241939078       -1.24198521461434        0.03053494424522
N            1.42653153145074       -1.94413543376882        0.00302687356759
C            0.40357005898565       -1.06091548902620       -0.00107949014842
C            0.92063243121479        0.22581293287130        0.02332353579942
C            0.10624377778788        1.38414674414302        0.00090200412186
O            0.49805352464181        2.56028650464768        0.00953769834869
N           -1.28001480121532        1.05254988158941       -0.05429736721663
C           -2.23966799087912        2.15816242352355       -0.06964035200909
C           -1.82001777444221       -0.19857202215535       -0.04365028221795
O           -3.01922202316925       -0.39320892436139       -0.06103461526673
N           -0.93552598701184       -1.30177757478852       -0.02663027609068
C           -1.46477220614820       -2.64537025130992       -0.05569563018436
H            3.72602697363056        1.21229524889621        1.06792321162525
H            4.01741217101012        1.02399360840891       -0.67769081256852
H            2.70766243772988        2.09578742925034       -0.09620013503802
H            3.58616028444560       -1.65624734409848        0.03622256002318
H           -1.67734784720752        3.08697679039437        0.00127410322084
H           -2.86434745888255        2.17823708974701       -0.96600628574075
H           -2.91045099067883        2.06198707684029        0.78161770015302
H           -1.16053398615403       -3.20317584604112        0.83349874499231
H           -1.13480233746684       -3.17548566946274       -0.95312385840566
H           -2.54983860682156       -2.56001001138219       -0.07065587835627
H            1.36858240134218       -2.94657254517395       -0.01522036366083
25
 energy: -43.839074430544 gnorm: 0.009433176281 xtb: 6.6.1 (8d0f1dd)
C            3.24413660007134        1.17205650303318        0.08590640585747
N            2.30389373263756        0.10354344626188        0.03449660432106
C            2.60514344682703       -1.23986151469642        0.02979776987496
N            1.42459376970218       -1.94283666078340       -0.00054797784064
C            0.40215055688158       -1.06315455972915       -0.00709353941424
C            0.91875300509008        0.22391797091441        0.01879391033462
C            0.10873799522203        1.38258134239179       -0.00283514838487
O            0.49653361435420        2.55678862494606        0.00180714438558
N           -1.27756251765999        1.05035317413131       -0.05261855024987
C           -2.23285836900820        2.15488030161761       -0.06799178063610
C           -1.81726726042562       -0.19968518974978       -0.04351060454991
O           -3.01519615494831       -0.39314142278313       -0.05910437543237
N           -0.93600043968101       -1.30317687449248       -0.03143970451749
C           -1.46890898070202       -2.64487078004998       -0.05553115805604
H            3.72143080841779        1.21773829658178        1.06851435840524
H            4.01504271943998        1.03696555203100       -0.67527900442267
H            2.70334742444954        2.09866385314819       -0.09043413203831
H            3.58067426093648       -1.65019082404420        0.04106896323215
H           -1.65879008864598        3.07680732632128        0.00679956675398
H           -2.85556268072367        2.17199359678032       -0.96710130995148
H           -2.90165026236898        2.05784906676792        0.78459568231624
H           -1.16659448344842       -3.19647099283346        0.83775784279247
H           -1.14079370007947       -3.17922539670871       -0.95085513320676
H           -2.55409410241324       -2.55720344396925       -0.07076319422006
H            1.37235632546794       -2.94660557562024       -0.01574215516856
25
 energy: -43.839047636047 gnorm: 0.008437934720 xtb: 6.6.1 (8d0f1dd)
C            3.24984585814923        1.16729219209645        0.08361458607848
N            2.30443794415340        0.10116558350528        0.03629831017861
C            2.59983830757080       -1.24003524536866        0.03146596330723
N            1.41994070581968       -1.93918200793640        0.00291822319576
C            0.39991540777825       -1.05920485030950       -0.00441770856385
C            0.91963868311692        0.22717289387182        0.02201316536075
C            0.10781874604488        1.38741985311599        0.00157591945309
O            0.49081463570896        2.56068869978200        0.00815153920265
N           -1.27962449645315        1.05266003209590       -0.04700202886209
C           -2.23740511905622        2.15292650271146       -0.06615939974106
C           -1.81904562853896       -0.19797413124209       -0.04330552010996
O           -3.01627022045546       -0.39181757675875       -0.06180508365406
N           -0.93666849359727       -1.29959262495921       -0.03045173078183
C           -1.46515194387075       -2.64300847940753       -0.05720347088539
H            3.73150894112017        1.21661910058975        1.06407826953357
H            4.01892774152552        1.02879390925979       -0.67896672951780
H            2.71403921925228        2.09701794772505       -0.09445147137893
H            3.57511568046511       -1.65411983129576        0.03901008018602
H           -1.66614635964965        3.07721112488212        0.00517339531154
H           -2.85225840744424        2.15772666011938       -0.97126658796602
H           -2.91035670305171        2.05789036956855        0.78429601624142
H           -1.15990689987052       -3.19630504946699        0.83389451034005
H           -1.13322408540478       -3.17163238493164       -0.95406842529269
H           -2.55087595262603       -2.56009508011368       -0.07264624744095
H            1.36660765870634       -2.94390178806680       -0.01205509401015
25
 energy: -43.839181980775 gnorm: 0.003523423623 xtb: 6.6.1 (8d0f1dd)
C            3.24713696455422        1.16931845783682        0.08628795661540
N            2.30624598253405        0.10052807585005        0.03625555611866
C            2.60388781914577       -1.24155046473504        0.03041393724407
N            1.42301443946750       -1.94097783391968        0.00104584400798
C            0.40177375665963       -1.06148800831849       -0.00522428290581
C            0.92067076171350        0.22550828538024        0.01961709345352
C            0.10939928489909        1.38574527570870       -0.00364588272555
O            0.49322212315040        2.55949288177240        0.00454737440226
N           -1.27977807323504        1.05221452555870       -0.05211194702669
C           -2.23622263323885        2.15562684831870       -0.06597774770494
C           -1.81912397738694       -0.19896687104399       -0.04638806059625
O           -3.01710397653791       -0.39321924542694       -0.06203693083186
N           -0.93607907019915       -1.30122434801863       -0.03044051287506
C           -1.46591402955388       -2.64465540202011       -0.05474118979997
H            3.72491925383253        1.21754079605729        1.06896406465468
H            4.01748894918949        1.03178396859327       -0.67531338961656
H            2.70627788003780        2.09647728693535       -0.09287104428362
H            3.58057769368112       -1.65514857128690        0.03701387347504
H           -1.66684667652955        3.08098426253709        0.00418992126570
H           -2.85549496817318        2.16830202301929       -0.96711078625369
H           -2.90699111911440        2.06134088933747        0.78623611100124
H           -1.16176854469100       -3.19927575162729        0.83608374281107
H           -1.13641793723565       -3.17583048452834       -0.95106423431297
H           -2.55141908117526       -2.55918771312594       -0.06945346529614
H            1.37006039759853       -2.94562306338751       -0.01558552063613
25
 energy: -43.839166485856 gnorm: 0.003867843267 xtb: 6.6.1 (8d0f1dd)
C            3.24626755330988        1.17095160539218        0.08355835649577
N            2.30620061758579        0.10185603643424        0.03591789135181
C            2.60492640141290       -1.24078005759016        0.03187881998798
N            1.42401362004801       -1.94110018845882        0.00239017509147
C            0.40219986040120       -1.06250760215064       -0.00369816700502
C            0.92007724320785        0.22522491376869        0.02203153953088
C            0.11056529612210        1.38458678433976        0.00050711231381
O            0.49434307851828        2.55873096560677        0.00706977234058
N           -1.27944261528492        1.05092458647834       -0.05042295912790
C           -2.23488553231726        2.15446883361524       -0.06818243011511
C           -1.81877408563391       -0.19965218600969       -0.04246431805702
O           -3.01695418748946       -0.39373724619818       -0.05874630316011
N           -0.93627424322307       -1.30207700628871       -0.02920837431175
C           -1.46806985185784       -2.64455334916603       -0.05702780615683
H            3.72613152777383        1.21691890023147        1.06518939539172
H            4.01483115804253        1.03304140824805       -0.67982953012252
H            2.70565464481734        2.09861467648917       -0.09350496279285
H            3.58201159583058       -1.65226543922190        0.04059232285760
H           -1.66406803828521        3.07853969749133        0.00535836065189
H           -2.85429467311518        2.17048628559035       -0.96941252805495
H           -2.90655725748918        2.05825697793891        0.78259448301722
H           -1.16640731313710       -3.19937577215802        0.83440287726817
H           -1.13873254164181       -3.17609375469212       -0.95346230304918
H           -2.55342438928646       -2.55701586497341       -0.07348331634067
H            1.37217735108395       -2.94572738525032       -0.01335762782061
25
 energy: -43.839195768308 gnorm: 0.001737106956 xtb: 6.6.1 (8d0f1dd)
C            3.24721357580108        1.16964639454468        0.08544560280674
N            2.30581216287127        0.10149755780037        0.03528078966843
C            2.60327284584275       -1.24090796604184        0.03048026991218
N            1.42252206395428       -1.94051081949861        0.00052880043906
C            0.40141763790209       -1.06158173384180       -0.00565431909123
C            0.91974833116426        0.22600794075619        0.02006839632371
C            0.11044903090933        1.38557744468168       -0.00167023809924
O            0.49360532877715        2.55955806431833        0.00484102722709
N           -1.27987161283220        1.05161242126715       -0.05141662215051
C           -2.23583960444635        2.15439064836558       -0.06747842210928
C           -1.81904489644657       -0.19893878293678       -0.04400441405896
O           -3.01703852862725       -0.39292367056222       -0.06022924402091
N           -0.93660266652847       -1.30118715564998       -0.03049444358551
C           -1.46659316393473       -2.64434631623022       -0.05568977234276
H            3.72533605793520        1.21555177031429        1.06790722738348
H            4.01760149005327        1.03159276760198       -0.67602583563346
H            2.70835769840236        2.09798836394624       -0.09242526210327
H            3.57994395270963       -1.65296162436676        0.03911237568026
H           -1.66513977418396        3.07873548048194        0.00485415243075
H           -2.85647559043249        2.16824937756870       -0.96799616848163
H           -2.90610771647602        2.05829765352893        0.78450786747609
H           -1.16227863144079       -3.19697799279984        0.83620350440486
H           -1.13686680821376       -3.17626387865229       -0.95170655309020
H           -2.55212477937099       -2.55914905441439       -0.07063695700958
H            1.37021881600373       -2.94524107071478       -0.01511128179172
25
 energy: -43.839172292281 gnorm: 0.003546897781 xtb: 6.6.1 (8d0f1dd)
C            3.24635105264380        1.16950492097797        0.08511557191582
N            2.30624141289091        0.09972368060408        0.03690301955274
C            2.60315792170378       -1.24194311519476        0.03135156474057
N            1.42289404848825       -1.94121475080113        0.00287271448307
C            0.40163703877345       -1.06225386058463       -0.00383439813922
C            0.92034693489726        0.22518958026390        0.02120206767079
C            0.11075241340085        1.38562159600270       -0.00177294022485
O            0.49336065237204        2.55916560343174        0.00600967787900
N           -1.27990923832872        1.05200793437147       -0.05081495486751
C           -2.23545399515263        2.15572791195005       -0.06550568215126
C           -1.81870199461541       -0.19906815482491       -0.04622965369601
O           -3.01643232284937       -0.39322601379546       -0.06378821236819
N           -0.93602159661392       -1.30143272172993       -0.02985882696316
C           -1.46596538127241       -2.64482681562885       -0.05565358511214
H            3.72551006601948        1.22063287752214        1.06695015942371
H            4.01600783452054        1.03257750469373       -0.67726969345992
H            2.70410158962059        2.09548545798388       -0.09469374452274
H            3.58000294589564       -1.65497250046893        0.03664092838699
H           -1.66567638028521        3.08099945576533        0.00473160896072
H           -2.85359899075174        2.16731141697084       -0.96763111734910
H           -2.90743843331125        2.06313770201093        0.78607807678343
H           -1.16259729919867       -3.20073719011376        0.83463617393540
H           -1.13602264736517       -3.17458534083771       -0.95258838540546
H           -2.55140624066245       -2.55898257630696       -0.07086090461771
H            1.37037582857317       -2.94612678279522       -0.01329898467058
25
 energy: -43.839197398105 gnorm: 0.001415847237 xtb: 6.6.1 (8d0f1dd)
C            3.24699880210871        1.16966658624715        0.08530586891266
N            2.30639207212034        0.10052623344863        0.03626007343873
C            2.60356728235114       -1.24137736711424        0.03101270264216
N            1.42320482493070       -1.94082116277922        0.00164752565609
C            0.40178240661090       -1.06205375749497       -0.00457042456737
C            0.92023749730801        0.22560676575915        0.02073792829670
C            0.11073728063160        1.38560461152712       -0.00185145458540
O            0.49316318097761        2.55942433156191        0.00553093281953
N           -1.28007225887994        1.05169584681518       -0.05108653100910
C           -2.23581598049005        2.15500331334077       -0.06656868361792
C           -1.81882632200553       -0.19918793336044       -0.04498873290128
O           -3.01667830048456       -0.39346025792904       -0.06122362478588
N           -0.93609713720125       -1.30140310188144       -0.02993116554263
C           -1.46662791800787       -2.64453111316406       -0.05558162342524
H            3.72609591164620        1.21788586647429        1.06726896555420
H            4.01658507502044        1.03234559624063       -0.67712156720053
H            2.70623495451509        2.09680555616083       -0.09307541930371
H            3.58049839905322       -1.65394574845112        0.03790459456800
H           -1.66595137849757        3.08004023968251        0.00476222774293
H           -2.85455914740461        2.16786489552436       -0.96831683820475
H           -2.90749114657411        2.06073579290038        0.78487501252534
H           -1.16352033235070       -3.19949184520268        0.83533256233079
H           -1.13712873654295       -3.17536893787358       -0.95213474342044
H           -2.55205582641396       -2.55819423244544       -0.07092686671747
H            1.37084201697198       -2.94565435852018       -0.01457023902100
25
 energy: -43.833360647604 gnorm: 0.084450703734 xtb: 6.6.1 (8d0f1dd)
C            3.25134752021123        1.16485011236893        0.08310388298592
N            2.30832498845651        0.08255643019351        0.03927845379226
C            2.59738141007985       -1.22893371493494        0.02781798950430
N            1.43856423175373       -1.94419988339350        0.00156495483426
C            0.40079347592083       -1.06192778669153       -0.00253460260798
C            0.93536858549059        0.21723521172277        0.02780091265752
C            0.09971164140199        1.39171690788844        0.00808430278236
O            0.50456342572184        2.55283806900965        0.01543534020752
N           -1.28364062640050        1.05482215292003       -0.06095571899767
C           -2.25967290470731        2.16350043400957       -0.09932242396268
C           -1.81809456707305       -0.20972361107385       -0.03178740968882
O           -3.01267385493779       -0.39583156038950       -0.05150175490264
N           -0.92442256389712       -1.30682996688191       -0.02315627386867
C           -1.46023378907511       -2.65087933225433       -0.05165069113606
H            3.72811171161958        1.21201900018393        1.06435072753887
H            4.02282432065156        1.02425267037109       -0.67802628745444
H            2.71651996248121        2.09133884596918       -0.09673929076751
H            3.57908589756114       -1.65261061329412        0.03532767126548
H           -1.66995902296420        3.07837725861877        0.03789837867056
H           -2.92279539156302        2.27318530597731       -0.98247087393050
H           -2.93408944483038        2.03919291186206        0.74110251913306
H           -1.15812051290388       -3.20227077111982        0.83931656357853
H           -1.13156859942838       -3.17896616294449       -0.94865244763251
H           -2.54653921668692       -2.56443310907357       -0.06769129001322
H            1.37633367495394       -2.95476963333486       -0.01634293416944
25
 energy: -43.835968170404 gnorm: 0.036400530941 xtb: 6.6.1 (8d0f1dd)
C            3.25274774278596        1.17305361875560        0.08528026493321
N            2.30860947814339        0.09860772880275        0.03685078040125
C            2.60230205808844       -1.23721697743711        0.02866899492861
N            1.42486649371710       -1.94058735342881        0.00136801299121
C            0.39812166696287       -1.05602972684350       -0.00608538157228
C            0.92490230583078        0.22745341885927        0.01830754841003
C            0.09750813084182        1.38914982093751       -0.00898423669991
O            0.48702577107870        2.56208956539688        0.01199717172687
N           -1.28825085194700        1.04923789029289       -0.06929857407337
C           -2.24446040649537        2.15647518078400       -0.06936521075138
C           -1.82744655105318       -0.20651368063482       -0.05058649222615
O           -3.02555308287549       -0.39961103905388       -0.05183936655868
N           -0.93561291959964       -1.30165486786427       -0.02828735740132
C           -1.46426247223514       -2.64610144095633       -0.05064867987953
H            3.73360415738155        1.21951319092373        1.06669220977050
H            4.02188904196679        1.03157230165292       -0.67757567463347
H            2.71297414376721        2.09937007335579       -0.09381298948156
H            3.57908571133233       -1.66490707264678        0.03780696097278
H           -1.65820318152041        3.07048671512975        0.03847603565543
H           -2.84741891172764        2.21065390570720       -0.98723332713848
H           -2.93322532011351        2.03922992335316        0.76641780715469
H           -1.15833523920582       -3.19755311495506        0.84084428938996
H           -1.13063852501636       -3.17584652154697       -0.94596368950406
H           -2.55002580500185       -2.56104851254949       -0.06746277266994
H            1.35691691673082       -2.94531386032560       -0.01531662592588
25
 energy: -43.837403770869 gnorm: 0.013064168660 xtb: 6.6.1 (8d0f1dd)
C            3.25586873138452        1.16783892190567        0.08421001408463
N            2.31028708942535        0.10077706041279        0.03863103111997
C            2.61001800817818       -1.24363815000991        0.02954430266995
N            1.42711377973572       -1.94444129630788        0.00358711916429
C            0.40362696664846       -1.06038690394739        0.00147835956990
C            0.92185344484275        0.22643898997348        0.02653901516213
C            0.10079784193938        1.38440977357719       -0.00068100866665
O            0.49147197180715        2.55852630068762        0.01733160267095
N           -1.29207625443011        1.05410427321643       -0.07717445993754
C           -2.25376685009560        2.16278894025203       -0.08312276337086
C           -1.82430605657994       -0.20199148498869       -0.04383813360115
O           -3.02197194652019       -0.40188190304760       -0.05098223384110
N           -0.93470419414409       -1.30096415964923       -0.02046044302275
C           -1.46045993526136       -2.64637515296454       -0.05081708087898
H            3.73624220114461        1.21283929245240        1.06619051925781
H            4.02382567245491        1.02236565020219       -0.67903650142644
H            2.71636575572604        2.09441662086857       -0.09642630147377
H            3.58644051793800       -1.66412339642690        0.03261987899888
H           -1.67691079655360        3.07820719561823        0.03138423025320
H           -2.88180232170065        2.24512236990648       -0.97730521578938
H           -2.93853725779985        2.04047247945229        0.75301124072172
H           -1.15445240807632       -3.20443960673511        0.83733403064423
H           -1.12781290175862       -3.17425750286245       -0.94859904299565
H           -2.54581380095455       -2.56323356803774       -0.06668285822063
H            1.36582309448616       -2.94806557783911       -0.01648560327425
25
 energy: -43.837388423804 gnorm: 0.009471491076 xtb: 6.6.1 (8d0f1dd)
C            3.24898926028310        1.17034060192214        0.08452626635832
N            2.30718073752834        0.10129770283213        0.03381870369909
C            2.60846465730916       -1.24272977837718        0.02801177130411
N            1.42749279570182       -1.94562897669652       -0.00185428308743
C            0.40457191046974       -1.06521647702170       -0.00556413304192
C            0.91956168558193        0.22322147610069        0.02274055289113
C            0.10588467091471        1.38158567973088        0.00097203308136
O            0.49633898571432        2.55460420311109        0.01299656124740
N           -1.28908884404931        1.05273533579082       -0.07309977062656
C           -2.24818416132563        2.16201606571593       -0.08687989849378
C           -1.82035423613209       -0.20239504651097       -0.03859524319831
O           -3.01747825696613       -0.40188632098028       -0.04758687905015
N           -0.93448153884366       -1.30384408491316       -0.02491075025623
C           -1.46495098656177       -2.64735126616811       -0.05118781300116
H            3.72449981438122        1.21829810162503        1.06828424922730
H            4.02127477065731        1.03343784533465       -0.67566798931594
H            2.70907025067369        2.09678640429136       -0.09511004068189
H            3.58499521300814       -1.65581481750571        0.03880975940758
H           -1.65916882921711        3.06958666375792        0.03889604089715
H           -2.88345057302239        2.24990678023178       -0.98015746873963
H           -2.92969440426063        2.03903253899558        0.75112487337192
H           -1.16215482576249       -3.19893172762007        0.84187798496746
H           -1.13533162886361       -3.18249461508810       -0.94591960106268
H           -2.55033929555514       -2.56149034565215       -0.06743266020017
H            1.37347318017282       -2.95055677719723       -0.01784256787845
25
 energy: -43.837547669179 gnorm: 0.005266838390 xtb: 6.6.1 (8d0f1dd)
C            3.25439765880574        1.16596279970468        0.08328466363870
N            2.30730901662967        0.10126148615067        0.03560592167880
C            2.60520562653460       -1.24289222064230        0.02953786068214
N            1.42367012942206       -1.94301358175870        0.00194773177469
C            0.40330191374730       -1.06196475346217       -0.00283449304417
C            0.91923862517504        0.22645933189444        0.02531801653149
C            0.10524214564006        1.38496633041807        0.00286758345747
O            0.49251775496836        2.55849627563675        0.01560436438662
N           -1.29110178102493        1.05472590305952       -0.06955931491893
C           -2.25297382094107        2.16088660412682       -0.08500766222325
C           -1.82152413700000       -0.20058554308622       -0.03932954014384
O           -3.01850178152128       -0.40093005658242       -0.05093362139522
N           -0.93505984462237       -1.30103102122807       -0.02409114792758
C           -1.46153394174493       -2.64583032384957       -0.05252681341217
H            3.73501727974288        1.21328710931295        1.06471014470338
H            4.02360823358196        1.02441657309405       -0.67930867384916
H            2.71975151010807        2.09554863639445       -0.09566352232277
H            3.58095747095886       -1.65755443295183        0.03664031245421
H           -1.66854370203635        3.07282511809459        0.03725645469922
H           -2.88476503561488        2.23830666101236       -0.98311641413969