25
 energy: 0.000000000000 xtb: 6.6.1 (8d0f1dd)
C            3.23720163006194        1.16630919979326        0.08434469647475
N            2.29877817382611        0.07527477071623        0.03981603040599
C            2.58028210190900       -1.21425402444508        0.03006176031096
N            1.43813958087363       -1.93419271955128        0.00098261760884
C            0.39035688448383       -1.05887472636071       -0.00790371836672
C            0.93510056364412        0.21347819449412        0.01709077491437
C            0.09450143893243        1.40504303904423       -0.00410947031874
O            0.49712751527797        2.54126714362870       -0.00342325688240
N           -1.25076640035757        1.06271879480407       -0.03085478223738
C           -2.21907211982101        2.15522099834493       -0.05001256985998
C           -1.81739487048744       -0.20012725993278       -0.04692818574614
O           -2.99983886758376       -0.37846417018721       -0.07008878229737
N           -0.92618586207120       -1.30210215599479       -0.03682761578324
C           -1.46982264913417       -2.64643102187190       -0.06029820460571
H            3.71247264356769        1.21471455160235        1.06488849150277
H            4.00791497605742        1.03430808813993       -0.67357694370751
H            2.69910007168542        2.09770118228144       -0.09130154882931
H            3.56654120610678       -1.63682992603973        0.04233140067262
H           -1.67107961066214        3.09322851271934       -0.02552706933167
H           -2.82428953597071        2.09428624779827       -0.95318082946668
H           -2.87644029173232        2.07745725625962        0.81450067533302
H           -1.17061996399332       -3.19584890659852        0.83242232437030
H           -1.14560257411436       -3.17511610292205       -0.95688275822323
H           -2.55549792440841       -2.55659984320617       -0.07459039797972
H            1.38130855184625       -2.94313852034425       -0.01389874181052
25
 energy: -2.140009467995 xtb: 6.6.1 (8d0f1dd)
C            3.25731366649975        1.16506358706272        0.08275218518264
N            2.31513403990581        0.08853529130555        0.03863472224115
C            2.60756810483385       -1.23853654453318        0.02629984354881
N            1.43705018208599       -1.94675742841799        0.00176006299897
C            0.40470413737809       -1.06237406196379       -0.00040714297277
C            0.93521206415667        0.21721435104146        0.02351288833993
C            0.09930708654380        1.39107700712796        0.00688410689632
O            0.50274113856745        2.55418128520519        0.01245524057500
N           -1.27118794200459        1.05432360808343       -0.04779251037742
C           -2.24721781099813        2.15925894670259       -0.08373164706444
C           -1.82011153795368       -0.20581827639215       -0.03991171710474
O           -3.01475703253548       -0.39687066513540       -0.05188035334757
N           -0.92570876175287       -1.30598347577786       -0.02393897350587
C           -1.45696887165991       -2.65169394579705       -0.04832092437598
H            3.73643578271362        1.21132369697168        1.06421609307955
H            4.02569483988102        1.02302309301836       -0.67897415302504
H            2.71682309435812        2.09197219720258       -0.09645592357266
H            3.58639257428567       -1.66357485802859        0.03032622192163
H           -1.66898654988965        3.07809845510903        0.03678556721022
H           -2.92558713090116        2.29108097266157       -0.98611553115142
H           -2.93555649045704        2.03867125448330        0.74237109404734
H           -1.15212268349424       -3.20429110037235        0.84263941176166
H           -1.12512009516654       -3.18004823599331       -0.94459131516220
H           -2.54253472759105       -2.56793228124416       -0.06419680551046
H            1.37369759113071       -2.95091427014758       -0.01528654448536
25
 energy: 7.807186162380 xtb: 6.6.1 (8d0f1dd)
C            3.28294607750933        1.15337302124554        0.07885514238030
N            2.32739633101036        0.09630917376019        0.03637325491768
C            2.62833412557685       -1.26035189378548        0.02037382854982
N            1.43446680645381       -1.95402259980641        0.00246111227461
C            0.41839738970427       -1.06581754919540        0.00990546825554
C            0.93099699006769        0.22193534954993        0.03122584750624
C            0.10025463386646        1.37448412445467        0.01048103179632
O            0.49887626177219        2.55154213593662        0.03847508264853
N           -1.30540321057125        1.05507714960065       -0.08959662127139
C           -2.28384055460351        2.17779773498053       -0.12064323535137
C           -1.82114967738630       -0.20972671097011       -0.03415834359588
O           -3.01833127719596       -0.42518554451338       -0.01692090752813
N           -0.92407868557311       -1.30668064041073       -0.00314528024006
C           -1.43633443188666       -2.65772613631543       -0.02895606593780
H            3.76981625803441        1.20156219539104        1.05896728995999
H            4.05093619124272        1.00130936276279       -0.68453332927067
H            2.74995172823410        2.08255930341459       -0.10433966579469
H            3.60117026657518       -1.68674906279099        0.01104310459483
H           -1.67224935158053        3.06770476224010        0.14093690805387
H           -3.01227985460153        2.55030436287037       -1.03496510962704
H           -3.03663116306917        1.96498573668382        0.63572393994642
H           -1.12498105980256       -3.21445462352083        0.85928340968873
H           -1.09463537940336       -3.18492550993685       -0.92481451368207
H           -2.52235351777893       -2.58784225133902       -0.04722401541164
H            1.37093977134172       -2.95643328813425       -0.01777443671484
25
 energy: 17.199765057880 xtb: 6.6.1 (8d0f1dd)
C            3.30590697119976        1.13546673895644        0.07582346515825
N            2.33385762405372        0.09346270850249        0.03399952950251
C            2.63352874998652       -1.27210763925905        0.01421874288440
N            1.43382195527163       -1.95664493658939       -0.00017367524521
C            0.42508088481577       -1.06651082089667        0.01654907306494
C            0.93036858556444        0.22559263939281        0.03640345133507
C            0.10111825990339        1.37443952213263        0.01097888381235
O            0.49601628463893        2.55124446027432        0.06340231738013
N           -1.32734483537162        1.07018420407925       -0.12364538612822
C           -2.31627733789868        2.20142950370771       -0.14171899461407
C           -1.82132410894747       -0.20489796482883       -0.02416651994340
O           -3.01576759736889       -0.44097789498365        0.01854545218562
N           -0.92070759589844       -1.30061723354926        0.01518004934422
C           -1.41845724842756       -2.65813967187386       -0.01327763590800
H            3.79798032266928        1.18146671088032        1.05445466045101
H            4.07353708193265        0.97242317613887       -0.68694129821244
H            2.78895976922589        2.07356170615224       -0.10936536463838
H            3.60542474974110       -1.70129424965241       -0.00990082870077
H           -1.71522337729677        3.06742359944303        0.22455516013357
H           -3.04636460232681        2.70911266074723       -1.06801372069396
H           -3.13103502989140        1.89791065210463        0.53316842379164
H           -1.10049358186277       -3.21669068922812        0.87228523133242
H           -1.06786827691899       -3.18114214547699       -0.90935128195819
H           -2.50530396087739       -2.60539984353018       -0.03238737566353
H            1.37278098201993       -2.96026659047163       -0.02358846252265
25
 energy: 20.759730712432 xtb: 6.6.1 (8d0f1dd)
C            3.31944159552521        1.12196099231808        0.07614495410639
N            2.33663292805592        0.08811193991853        0.03215705383473
C            2.63106301177087       -1.27429975655839        0.01199345006224
N            1.43465518045495       -1.95595622830048       -0.00327766825289
C            0.42655476254483       -1.06530258943550        0.01718239650204
C            0.93250073636244        0.22743871186189        0.03676791503333
C            0.10380671522599        1.38044121668222        0.00782374593540
O            0.49471218712216        2.55174335957286        0.07766785406403
N           -1.33365158274697        1.08228859958961       -0.14143449495922
C           -2.33506687357830        2.21244803947259       -0.14773613761467
C           -1.82099414501858       -0.19797991069066       -0.01475314911728
O           -3.01117366367906       -0.44335423321314        0.04502893072877
N           -0.91821429181667       -1.29317455537543        0.02408798098400
C           -1.40945657738702       -2.65464804361066       -0.00688967885192
H            3.81108271520100        1.16383029657279        1.05512069006226
H            4.08718468943519        0.95085609435499       -0.68458880852722
H            2.81558235583629        2.06734975623416       -0.11029110331577
H            3.60367772200283       -1.70532446746941       -0.02269239624397
H           -1.76251415491795        3.05833231233804        0.25851090973792
H           -3.06470667248136        2.76663257848226       -1.07250586763800
H           -3.16796841554703        1.86806220868627        0.46818937781330
H           -1.08737450821802       -3.21270161634337        0.87749753891052
H           -1.05314118449010       -3.17310978687395       -0.90344708110819
H           -2.49651396796573       -2.61365292113628       -0.02624092376686
H            1.37609610624538       -2.96096339490508       -0.02728159223166
25
 energy: 20.739776404559 xtb: 6.6.1 (8d0f1dd)
C            3.32239818447618        1.11718484875463        0.07348835607685
N            2.33693709917886        0.08471982315241        0.02844456215004
C            2.62654710081615       -1.27080194025241        0.01365748992117
N            1.43557538784524       -1.95404681386352       -0.00309449044897
C            0.42485595741457       -1.06408984838321        0.01372220158686
C            0.93457926528254        0.22780292156719        0.03313099094155
C            0.10773218674480        1.38593083850405        0.00477984594829
O            0.49479787010512        2.55272643611568        0.08465308299254
N           -1.33020591567161        1.08695719831538       -0.15059636644115
C           -2.33851489842110        2.21509224574371       -0.14658526989844
C           -1.82113969381168       -0.19250796087519       -0.01485439222002
O           -3.00815214176986       -0.43831087983642        0.05699459617971
N           -0.91803363714212       -1.28801630866275        0.02474852643970
C           -1.40938274288383       -2.65067908453051       -0.00308810777697
H            3.81116169758601        1.15795840115555        1.05350604959908
H            4.09005315485563        0.94206141525885       -0.68564596896651
H            2.82351823042158        2.06461739855388       -0.11490558858472
H            3.60006950391170       -1.70209801833858       -0.02736028704761
H           -1.78526101753217        3.04528274394993        0.30350869994479
H           -3.04843776283868        2.78183449264653       -1.07845194258188
H           -3.18190898525233        1.83483877112958        0.42219389755525
H           -1.08612187960195       -3.20520140651441        0.88282005464015
H           -1.05158309924242       -3.16903555367970       -0.89854126506466
H           -2.49599244890594       -2.61344987530661       -0.02213023432016
H            1.37872325237154       -2.95974124243214       -0.02336054447759
25
 energy: 19.259489189405 xtb: 6.6.1 (8d0f1dd)
C            3.32091585407056        1.11792092038954        0.07192667034625
N            2.33718994312283        0.08358088034790        0.02592555893504
C            2.62421119926446       -1.26789283564729        0.01722221163530
N            1.43571090371508       -1.95299319632364       -0.00243207517167
C            0.42320201637931       -1.06319558002843        0.01030097504937
C            0.93603490294536        0.22780974252790        0.02917080552585
C            0.11110548259785        1.38834864503362        0.00157750035661
O            0.49614331990196        2.55410776278508        0.08662223203986
N           -1.32419226509023        1.08739429948366       -0.15287332163276
C           -2.33470564910990        2.21471279937587       -0.14260820065739
C           -1.82097965531319       -0.18953774442849       -0.01447752494338
O           -3.00694720619979       -0.43324681154677        0.06067969095117
N           -0.91866708166072       -1.28595831606991        0.02281630920741
C           -1.41240421411883       -2.64843730412814       -0.00270590063304
H            3.80782557707581        1.15937216379843        1.05257786740050
H            4.08887637543508        0.94285207915899       -0.68640802218612
H            2.82099484339311        2.06424889931463       -0.11733693113192
H            3.59782631580823       -1.69976147678172       -0.02812417197674
H           -1.79629134602463        3.03487145708641        0.32382185940167
H           -3.02876170555274        2.77359715071806       -1.07437221284921
H           -3.17920085448624        1.81945582643369        0.39953283519679
H           -1.08968147851387       -3.20140595802548        0.88426258597853
H           -1.05564585191832       -3.16837757726284       -0.89731045918764
H           -2.49871132593101       -2.60977166605738       -0.02111076678256
H            1.37836656814612       -2.95866555798178       -0.01964361872463
25
 energy: 18.310449335181 xtb: 6.6.1 (8d0f1dd)
C            3.31926099342531        1.11990422677756        0.07003981454182
N            2.33756068989625        0.08395971988739        0.02441700174841
C            2.62428514808137       -1.26749577677162        0.02064298286979
N            1.43531856834862       -1.95296987420286       -0.00115049433655
C            0.42281433532905       -1.06272478684098        0.00907295335405
C            0.93641506371748        0.22803453895493        0.02714404717441
C            0.11244810111012        1.38850142906548        0.00035795272941
O            0.49710052115774        2.55520119214681        0.08515229489717
N           -1.32096112975161        1.08691849216737       -0.15434589339223
C           -2.33155322938778        2.21476960409410       -0.14156001932046
C           -1.82050195282899       -0.18837433220995       -0.01566198170776
O           -3.00696163435034       -0.43091667861945        0.05952899711152
N           -0.91910287179005       -1.28572165553251        0.02164228038868
C           -1.41458862474902       -2.64762713868141       -0.00172301375299
H            3.80610900671060        1.16243248997149        1.05066123029312
H            4.08736000606227        0.94565478305797       -0.68840258841998
H            2.81699213805113        2.06485700837018       -0.11944506722733
H            3.59737469802111       -1.69999161463398       -0.02876731227669
H           -1.79811840577183        3.03114453728503        0.34418627408135
H           -3.01090554942574        2.77305287140603       -1.07468959566897
H           -3.18234023060378        1.80497038212008        0.38636502673623
H           -1.09253107670292       -3.19997971375742        0.88592947612387
H           -1.05905684098364       -3.16943268446172       -0.89571750959967
H           -2.50091060333543       -2.60677925945052       -0.01975103128600
H            1.37670754770631       -2.95835915797007       -0.01689192891392
25
 energy: 17.690666167246 xtb: 6.6.1 (8d0f1dd)
C            3.31825778071503        1.12137043072620        0.07004835535397
N            2.33766355951784        0.08458312546990        0.02446987035487
C            2.62500924701484       -1.26802822355120        0.02379219226749
N            1.43487260380638       -1.95314791470832       -0.00045353157940
C            0.42294919966533       -1.06242964834650        0.00905973316138
C            0.93620368452989        0.22825742244458        0.02661933352878
C            0.11174396361818        1.38772437098679       -0.00036941846437
O            0.49673645102388        2.55544291418061        0.08199645589092
N           -1.32024957055228        1.08622938641649       -0.15431135584194
C           -2.33068864821789        2.21452850035227       -0.14145711980908
C           -1.82019616658356       -0.18853139240726       -0.01577572708688
O           -3.00735804303994       -0.43085939038568        0.05739242670861
N           -0.91919099813266       -1.28631589021549        0.02101649511491
C           -1.41522961974645       -2.64780397801657       -0.00201151592416
H            3.80570576021008        1.16422818354992        1.05043141575762
H            4.08657406918584        0.94823450771117       -0.68865405420733
H            2.81440018844681        2.06564508685647       -0.11899396039967
H            3.59749497564643       -1.70102497334124       -0.02995680904437
H           -1.79819912636383        3.02836027161508        0.34508523184845
H           -3.00509386437519        2.77089458414512       -1.06990924558112
H           -3.17865051859450        1.80633136225996        0.38585572977295
H           -1.09360677705593       -3.20054490156275        0.88561693780507
H           -1.06029044364091       -3.17022714381728       -0.89599962683872
H           -2.50169924004422       -2.60558504536615       -0.02002892862507
H            1.37505620090311       -2.95830304282416       -0.01642898801560
25
 energy: 17.328297968915 xtb: 6.6.1 (8d0f1dd)
C            3.31809006532020        1.12187002093257        0.07019972835070
N            2.33766657352442        0.08506542308584        0.02500278162563
C            2.62590758714090       -1.26902529313573        0.02768561164740
N            1.43449156491460       -1.95336367201231        0.00029148426112
C            0.42340916519503       -1.06216164820384        0.00964594779456
C            0.93595456028348        0.22845691671583        0.02680732569731
C            0.11047473002917        1.38703300829627       -0.00070608893298
O            0.49638916124020        2.55540159817369        0.07846975525520
N           -1.32048472546103        1.08623704966050       -0.15455989965252
C           -2.33156602224151        2.21489874116470       -0.14236971639343
C           -1.81967656187442       -0.18864896070081       -0.01634765039243
O           -3.00747092886518       -0.43111388468407        0.05491816289445
N           -0.91900445387531       -1.28677223371301        0.02085709120207
C           -1.41499839199704       -2.64797043083265       -0.00193033744331
H            3.80642895501952        1.16474038893125        1.05021837709657
H            4.08630752958890        0.94927937421349       -0.68898820774879
H            2.81365260783630        2.06602873229893       -0.11846223615417
H            3.59774372214622       -1.70219052322425       -0.03294674079086
H           -1.79890349044197        3.02701915760774        0.34535738153725
H           -3.00115533224530        2.77260083645555       -1.06549497697133
H           -3.17940874887218        1.80703528175062        0.38617077560863
H           -1.09344884089384       -3.20098169229180        0.88559145361856
H           -1.06034124120327       -3.17067754590772       -0.89597842398978
H           -2.50160002962382       -2.60534783615782       -0.01995532297633
H            1.37375721329221       -2.95838420625105       -0.01644237899621
25
 energy: 17.157522814356 xtb: 6.6.1 (8d0f1dd)
C            3.31829966854947        1.12154585542962        0.07044897173994
N            2.33729276086948        0.08525257545826        0.02566542480249
C            2.62613932290644       -1.26937038484589        0.03160074318063
N            1.43434085359392       -1.95333954804992        0.00079953462992
C            0.42357640007298       -1.06203793071287        0.00988474490791
C            0.93570540577365        0.22848676147720        0.02699504142079
C            0.10917946354395        1.38687022866238       -0.00131369431120
O            0.49595615295426        2.55514666724729        0.07663122201894
N           -1.32112959635817        1.08648665910452       -0.15551125562973
C           -2.33316939582106        2.21528232537885       -0.14401816694299
C           -1.81955236200626       -0.18884760779739       -0.01736849121842
O           -3.00749919633497       -0.43150095454753        0.05346314910544
N           -0.91888467686785       -1.28689610741118        0.02070384224659
C           -1.41445240435545       -2.64808704441446       -0.00171338769437
H            3.80709702751968        1.16425939124225        1.05024301277105
H            4.08628931020667        0.94864535119534       -0.68900099736256
H            2.81442428059118        2.06603631819943       -0.11825250115571
H            3.59764889172667       -1.70210233025653       -0.03664516993902
H           -1.79934195971002        3.02634398019323        0.34628164980374
H           -2.99954886701560        2.77504342029075       -1.06282116152420
H           -3.18030860937378        1.80784038555223        0.38687665614396
H           -1.09260330289518       -3.20085680548069        0.88584125160515
H           -1.05972327931188       -3.17082371066318       -0.89574056144930
H           -2.50107607863996       -2.60596294794760       -0.01968591158527
H            1.37355485831804       -2.95838594513219       -0.01633004941648
25
 energy: 17.059419506659 xtb: 6.6.1 (8d0f1dd)
C            3.31858415665883        1.12100472659324        0.07061941875917
N            2.33692432280868        0.08524117338411        0.02605963763743
C            2.62593646206979       -1.26918773865286        0.03485597914993
N            1.43434717303692       -1.95322037307404        0.00088114896414
C            0.42348634184480       -1.06202580230594        0.00954410384301
C            0.93563890131042        0.22841655328931        0.02697611835241
C            0.10865139029256        1.38708764055466       -0.00168144926351
O            0.49592179943037        2.55491578372280        0.07701575659106
N           -1.32141569925449        1.08675214929945       -0.15623196774910
C           -2.33417409186247        2.21561435503600       -0.14511488918868
C           -1.81968287719044       -0.18888998134716       -0.01785899023906
O           -3.00745722496826       -0.43152300846437        0.05365038899357
N           -0.91891270976178       -1.28667911731570        0.02052823522144
C           -1.41413596714067       -2.64802790365469       -0.00164947116492
H            3.80733891261953        1.16359586613086        1.05039189627761
H            4.08640177604546        0.94744868162118       -0.68882239344389
H            2.81551743643881        2.06583462691737       -0.11836735656761
H            3.59734063482213       -1.70127044149465       -0.04007023131863
H           -1.79990875785121        3.02612178463754        0.34599903791762
H           -2.99881135336807        2.77598370999259       -1.06173010336726
H           -3.18148652870395        1.80789259458465        0.38718906464538
H           -1.09191046885312       -3.20046756698857        0.88595472622504
H           -1.05926588754612       -3.17068369851233       -0.89563642797278
H           -2.50070932198994       -2.60655710507743       -0.01946298769216
H            1.37399624904847       -2.95834830670412       -0.01600534846293
25
 energy: 16.964149489280 xtb: 6.6.1 (8d0f1dd)
C            3.31877365338127        1.12044157199778        0.07081573441167
N            2.33641576273990        0.08521656497247        0.02635933835660
C            2.62545594301698       -1.26862129997353        0.04019408346326
N            1.43440382581094       -1.95305240668615        0.00073934910001
C            0.42317779522806       -1.06215200248958        0.00838825042032
C            0.93555588052536        0.22824565008815        0.02652807569625
C            0.10832739914501        1.38740410397125       -0.00221342820500
O            0.49577232790724        2.55453401600117        0.07879955427079
N           -1.32167344743179        1.08673940930043       -0.15752389488493
C           -2.33490499210479        2.21582368190317       -0.14651484464796
C           -1.82013863514394       -0.18909069067624       -0.01820891607653
O           -3.00750189029814       -0.43158035893536        0.05501039684547
N           -0.91908327754374       -1.28632066755277        0.02010184204404
C           -1.41395565952943       -2.64798086449147       -0.00173005556892
H            3.80713510724776        1.16305087960766        1.05070271968490
H            4.08653201365452        0.94591182070174       -0.68835427841786
H            2.81670095021235        2.06560648284361       -0.11872963677027
H            3.59671251078856       -1.69963161313496       -0.04533351975710
H           -1.79984515833144        3.02593385941899        0.34581870491285
H           -2.99842390518039        2.77626726994657       -1.06161243896289
H           -3.18158476397755        1.80829224772240        0.38773711142866
H           -1.09129104497355       -3.19993121671224        0.88599478134548
H           -1.05885977192294       -3.17053858847798       -0.89561339737152
H           -2.50043980421338       -2.60723735770223       -0.01931448990243
H            1.37495384892941       -2.95830188947094       -0.01500714526758
25
 energy: 16.912875156924 xtb: 6.6.1 (8d0f1dd)
C            3.31869363970582        1.12050915065755        0.07089465127411
N            2.33643602283940        0.08520949814408        0.02628745517710
C            2.62542306883552       -1.26854228082171        0.04419009910627
N            1.43438431725437       -1.95309118576163        0.00055103915515
C            0.42310345617936       -1.06224175889419        0.00738048896722
C            0.93561779231732        0.22818090546294        0.02597843127417
C            0.10863519937862        1.38743417254494       -0.00224369115389
O            0.49570301317134        2.55443890051085        0.08003589733879
N           -1.32153006887952        1.08651288601404       -0.15794673895485
C           -2.33451097477846        2.21579678401352       -0.14652962698470
C           -1.82028209936293       -0.18911218011593       -0.01794409009223
O           -3.00749898367335       -0.43145436062655        0.05622689222787
N           -0.91912636165768       -1.28615645877583        0.01970107178915
C           -1.41410026021655       -2.64792579358741       -0.00195501086986
H            3.80684104204312        1.16329525067925        1.05086639158810
H            4.08656889167356        0.94584284992024       -0.68810087071273
H            2.81658495966698        2.06558313313128       -0.11884968709824
H            3.59632169650666       -1.69914760675654       -0.04884241991118
H           -1.79956866944834        3.02601855566540        0.34492505662034
H           -2.99832134895881        2.77528154698533       -1.06207106644287
H           -3.18133434620110        1.80840178656445        0.38802592919570
H           -1.09146607675775       -3.19980932619066        0.88583100781694
H           -1.05898689370862       -3.17054076181538       -0.89576333400762
H           -2.50057507138680       -2.60710195264102       -0.01948546735621
H            1.37520272339414       -2.95835315213510       -0.01412851179927
25
 energy: 16.810658434130 xtb: 6.6.1 (8d0f1dd)
C            3.31827878131801        1.12093509925214        0.07131624741100
N            2.33661582410118        0.08517451502897        0.02630811548325
C            2.62580315147832       -1.26889814588477        0.05870976163841
N            1.43422216828521       -1.95325057846784        0.00053108099109
C            0.42315068459181       -1.06237800813550        0.00474596956275
C            0.93573878669008        0.22806810203859        0.02424908621789
C            0.10907409775299        1.38721151829684       -0.00267883399194
O            0.49488366733943        2.55424929756038        0.08129167531905
N           -1.32145263662432        1.08582621524654       -0.15933262694035
C           -2.33358838079245        2.21550974755750       -0.14658438609805
C           -1.82041684280744       -0.18926255289458       -0.01761070098473
O           -3.00746361315366       -0.43148943933212        0.05833235147971
N           -0.91897305055831       -1.28605837707826        0.01834797294629
C           -1.41430511734007       -2.64794226415669       -0.00252923472680
H            3.80632632852536        1.16421219551745        1.05129840107866
H            4.08648825287916        0.94642096877921       -0.68747861494519
H            2.81568155771122        2.06567383673148       -0.11874226644101
H            3.59506698533677       -1.69848039444312       -0.06136399737347
H           -1.79810821407405        3.02606519774129        0.34430866625676
H           -2.99855578311564        2.77364233917592       -1.06324877632885
H           -3.17950152240163        1.80940330481790        0.38908050820057
H           -1.09197037103456       -3.19959257710645        0.88552579159442
H           -1.05919388942523       -3.17091631314535       -0.89605387277518
H           -2.50081873491538       -2.60660209261580       -0.02007640282344
H            1.37523253816944       -2.95849299231184       -0.01131201860356
25