72
 energy: -99.603873241665 xtb: 6.6.1 (8d0f1dd)
N           -1.03960966478962        2.91781989985918        2.16598588240830
C           -1.44963979017445        1.84362783319180        1.59446644947609
C           -2.66102530196382        1.75104460685758        0.87409341689102
C           -3.25465161227010        0.44556419265453        0.74217215081789
C           -4.23230644121367        0.16489032921257       -0.24128930395327
C           -4.76494514408593       -1.09213908857524       -0.40679893008561
O           -5.66006860940580       -1.43211727233107       -1.37803544262594
C           -6.17025947602429       -0.42664027268158       -2.21282273286987
C           -4.35683354427537       -2.14047979268787        0.44035996869046
O           -4.91622953824068       -3.35722923563476        0.18187674945021
C           -4.61182057046108       -4.41623803375311        1.04498307145251
C           -3.46932971852367       -1.85507042955625        1.46115700265517
C           -2.92897230588010       -0.59267849942662        1.61160442066759
C           -2.24223600895483        2.23098741209965       -1.97629981844496
C           -1.51464630035467        0.94535061984802       -1.85864626046083
C           -0.20455227151179        1.06718578179093       -1.22983697455835
N            0.41643048526107        0.06185952014164       -0.61458176504865
C            1.79386352807142        0.15480867327568       -0.17499986632539
C            2.77409863226215       -0.36251722946175       -1.25229908485613
C            4.19964599731929       -0.26749949900855       -0.78685308152470
C            4.93448006755735        0.88733229698092       -0.97057346893771
C            6.24746620645565        0.97053628617434       -0.52395505929563
C            6.84376235420375       -0.10147589839479        0.11617411599113
O            8.12511708778943       -0.13115143314717        0.57406971752790
C            8.94344120520173        0.98603131504782        0.33704902131830
C            6.09689081225227       -1.28334637297714        0.32665508993586
O            6.76251274481327       -2.28411891139316        0.97022474127406
C            6.10640942916517       -3.50878623215768        1.17338734354841
C            4.79085377252017       -1.34673289841224       -0.12598746638564
C           -0.22017202534425       -1.22945233182921       -0.60772477044266
C           -3.57906216128727        2.96760420269154        0.76111071927784
C           -4.06333965322402        3.34876210337032        2.14771896973938
C           -2.91525244011570        4.17047619737460        0.10855469796694
H           -4.55657239254665        0.95928117871535       -0.89330334382106
H           -6.67982592222473        0.36047675462263       -1.64825116565706
H           -6.89399297887164       -0.91314575100771       -2.86536605370568
H           -5.38027328336505        0.01530913864565       -2.82840383599035
H           -4.89923394873150       -4.20192386782836        2.07842837301246
H           -5.19511731258539       -5.26215611069697        0.68381204534973
H           -3.54494340434567       -4.66568730761965        1.01241963550223
H           -3.17514020865126       -2.62357885147947        2.15470963173489
H           -2.27305650219582       -0.40435712688609        2.44128764842203
H           -3.15919662027165        2.22704351913277       -2.53930198457483
H           -1.56598367855687        3.01813874883547       -2.21553824121565
H           -2.18929510200481        0.20652929649096       -1.42813296886269
H           -1.33072766693581        0.80637974854463       -2.93040759640431
H           -0.89928926849428        0.90190504254430        1.64939323823570
H            0.35444180520431        1.99499146385071       -1.31786472184212
H            1.93326759031297       -0.40909563471675        0.75202474679741
H            2.02744699782114        1.19142561762170        0.04775368835408
H            2.63345403173172        0.23088361261336       -2.15358759756198
H            2.52609964632150       -1.39808517040909       -1.49104581900196
H            4.48711120872796        1.72965447490974       -1.47448056893161
H            6.80118942383890        1.88158456386137       -0.68615912731462
H            8.56358515482719        1.87603277552782        0.84785062093194
H            9.04672141770971        1.19575411471280       -0.73346659261184
H            9.91920099555806        0.72996084789221        0.74329078724682
H            6.82885960014922       -4.16040360549647        1.66482458795138
H            5.23218039170022       -3.39185552347527        1.82044243940140
H            5.79854690232517       -3.96659991071467        0.22684961949674
H            4.21407180733801       -2.24692701749806        0.02021581065983
H           -0.36176992459800       -1.60397179002318       -1.62576678624256
H           -1.20072885195543       -1.15641090741062       -0.13786214179099
H            0.38244485018110       -1.93791381868601       -0.04616120277960
H           -4.50372050274869        2.73336754839731        0.21761787196210
H           -3.21330972823770        3.61657720660267        2.74955047160278
H           -4.55769549104112        2.52069399496353        2.61984264877136
H           -4.76184833520683        4.17486325833935        2.08447837977917
H           -2.02005130345522        4.38209659832468        0.67485115316740
H           -2.69121202062391        3.90520074532913       -0.91982087158634
H           -3.54353382361589        5.05622023451309        0.11284306799518
H           -0.19015058846007        2.77435039778584        2.71481618051260
