25
 energy: -40.442212418721 gnorm: 8.790121809155 xtb: 6.6.1 (8d0f1dd)
C            2.85618826361990        0.70113459434978        0.46273571896995
N            1.82675366635723       -0.23085390706755        0.05778748671821
C            2.12767675432077       -1.42277690098665       -0.44179144673323
N            1.16433649131544       -2.27878908380755       -0.88534890468366
C           -0.26686138795622       -2.14611056674397       -0.63530327423690
C            0.50425184903935        0.15407714317304        0.21292311680926
C           -0.05272272488801        1.44938567156659        0.06269687508822
O            0.46256376971496        2.54699524653427        0.06747236360930
N           -1.45807343272958        1.23963130685856       -0.09166103036668
C           -2.38716868468868        2.33859794182182       -0.22079547744973
C           -1.81498296496484       -0.04563237533853       -0.13352787118035
O           -2.84637713582697       -0.63075687506200       -0.26083502487688
N           -0.51761672317065       -0.82704991404456        0.07036772714829
C           -0.59247874461339       -2.04958359931633        0.85635548001483
H            3.11004281690929        0.55397322952345        1.51391237905420
H            3.74630056689058        0.55971862185156       -0.14505370388002
H            2.48265451198533        1.71740065624834        0.33620043507878
H            3.15841103492996       -1.70750400834642       -0.55340401878886
H           -1.83505691399494        3.19582922808975       -0.60461161437254
H           -3.19134167056906        2.06095501672349       -0.89928619349331
H           -2.80801393350942        2.59388096857757        0.75301951119814
H            0.17926900297831       -2.19581796119797        1.59934829744194
H           -0.54267989130833       -2.30110697583824       -0.91805168065264
H           -1.59684130149129       -2.32240552410685        1.16038961242711
H            1.45219829574616       -3.13495339186333       -1.33236714494348
25
 energy: -42.146525779674 gnorm: 0.141633952148 xtb: 6.6.1 (8d0f1dd)
C            2.85616884862758        0.70112434153872        0.46272624609400
N            1.82682847777882       -0.23088283986875        0.05790556986666
C            2.12902331785306       -1.42267381202098       -0.44218181079122
N            1.17292981687960       -2.27562429656327       -0.88085205721894
C           -0.07947256052171       -2.04165775520997       -0.44362151406537
C            0.50418008751784        0.15485035135353        0.21314741690315
C           -0.05273884214776        1.44945861144886        0.06263779342214
O            0.46255069865338        2.54697619535826        0.06745897088161
N           -1.45809369476925        1.23963638450015       -0.09170416501936
C           -2.38718391760009        2.33859867937504       -0.22080051350313
C           -1.81499844999809       -0.04584360322072       -0.13382259895169
O           -2.84635802483358       -0.63083113120248       -0.26083182630710
N           -0.51462355905695       -0.82168936879835        0.07599407169524
C           -0.58978423430978       -2.04726053187302        0.86400718440699
H            3.11003856106851        0.55398399521418        1.51393025911985
H            3.74631470228159        0.55971802048366       -0.14505073954619
H            2.48264915593089        1.71741573034226        0.33618692938285
H            3.15848254242034       -1.70747960871134       -0.55346720582323
H           -1.83505432087370        3.19582896027658       -0.60460922324264
H           -3.19134186025640        2.06095334906512       -0.89929499151345
H           -2.80802139195192        2.59388062645065        0.75302751118701
H            0.17903366170077       -2.19584921710728        1.60006837300052
H           -0.74457505885292       -2.41675980881138       -1.12701703182643
H           -1.59693129363753       -2.32258703503594        1.15972125439370
H            1.45140885219321       -3.13504769538525       -1.33238628464503
25
 energy: -42.167674153437 gnorm: 0.059178041281 xtb: 6.6.1 (8d0f1dd)
C            2.86076958862710        0.70543680338580        0.46452680915364
N            1.83540418130635       -0.22784805747923        0.06029396396954
C            2.15181610860152       -1.41642997836764       -0.44849299734320
N            1.18832698509099       -2.27094167894654       -0.90778145268580
C           -0.12912285497685       -2.08241008683004       -0.49043423669045
C            0.51197526101324        0.16176390235198        0.22497503936045
C           -0.04715364312365        1.45368248401342        0.07114792011855
O            0.46484270216684        2.55342820420526        0.06736725570942
N           -1.45277848832399        1.23906194976748       -0.09141372379016
C           -2.38492223619468        2.33706340299497       -0.21929695049735
C           -1.80913559674958       -0.04552344074275       -0.14268530308390
O           -2.83999199704019       -0.63159811507485       -0.26543361721906
N           -0.51082793697611       -0.82205934497950        0.08093925734938
C           -0.59831495429464       -2.04572845792438        0.90062574636106
H            3.11322495716443        0.55696633753957        1.51589017916299
H            3.74999942946543        0.56329056744885       -0.14420484483906
H            2.48373064290347        1.72040618065376        0.33670569091358
H            3.18382113144657       -1.69227764670521       -0.55742999820626
H           -1.83324401538780        3.19535196785405       -0.60161898456524
H           -3.18860272024222        2.06036267803631       -0.89906835615851
H           -2.80720954074867        2.59195483535212        0.75414884143887
H            0.15630565243108       -2.15446545007184        1.67142315629333
H           -0.79960666673469       -2.45629701998017       -1.17374289015870
H           -1.60391777362379       -2.34037458513050        1.16920076749361
H            1.46504329829575       -3.13457690977265       -1.34446965418677
25
 energy: -42.172317485281 gnorm: 0.052354389937 xtb: 6.6.1 (8d0f1dd)
C            2.86484013419750        0.70914456706660        0.46865055102607
N            1.83847881715098       -0.22419574012143        0.06381444203491
C            2.15202507830556       -1.41090986165404       -0.44752855360642
N            1.17981857013775       -2.25982337683783       -0.91493025312655
C           -0.17291730911020       -2.11259385271270       -0.51969237578547
C            0.51810564633573        0.16531600118400        0.23236777101985
C           -0.04305212427117        1.45551104167196        0.07648869270811
O            0.46450812821235        2.55686460848765        0.07269340647822
N           -1.44812493230447        1.23744693484330       -0.09134300787573
C           -2.38205441603037        2.33440157590520       -0.21916863196501
C           -1.80108953312227       -0.04759359918502       -0.15086581041241
O           -2.83040773054865       -0.63529964027205       -0.27895426102730
N           -0.50375652466773       -0.82354298265858        0.07869057122462
C           -0.58345532194192       -2.04338995378561        0.91329026213756
H            3.11603773977074        0.56452523544624        1.52113562505360
H            3.75648768117040        0.56741391720885       -0.13682321128301
H            2.48997537021752        1.72481995462713        0.33895089004999
H            3.18467848169356       -1.68485674685445       -0.56195148300506
H           -1.83127854109829        3.19476232794689       -0.59843185273374
H           -3.18371186230055        2.05783942306361       -0.90116244691566
H           -2.80650659292883        2.58594565577551        0.75428096032660
H            0.16346587025240       -2.12457329045639        1.69529264594399
H           -0.85087347331669       -2.48817202813916       -1.20294328477078
H           -1.58729740552668       -2.34850029912900        1.17339380209932
H            1.45653576381925       -3.13230132982243       -1.33408282969577
25
 energy: -42.172991173194 gnorm: 0.050698339038 xtb: 6.6.1 (8d0f1dd)
C            2.86685108353006        0.71132653245701        0.46951818904357
N            1.83921971034325       -0.22279387753998        0.06541937669509
C            2.14608068071848       -1.40993828421236       -0.44575194570652
N            1.17261426883348       -2.25431462947294       -0.91464067305581
C           -0.18702408252697       -2.11915705755770       -0.52904295134562
C            0.51987796901208        0.16430398940928        0.23487584922832
C           -0.04248132359008        1.45475817892400        0.08045584585941
O            0.46368056003753        2.55647505551442        0.08209649178989
N           -1.44710936363204        1.23606169315739       -0.08910551685115
C           -2.38078655044816        2.33227740600281       -0.21945700104689
C           -1.79764841229559       -0.04966028111411       -0.15204430789620
O           -2.82505791445325       -0.63875594311174       -0.29330021119627
N           -0.50205442783402       -0.82401157705887        0.07865040722717
C           -0.57362065516104       -2.04111276709883        0.91328721391610
H            3.11621051294932        0.57169157037104        1.52332154452502
H            3.76081451124543        0.56822639511693       -0.13253788545404
H            2.49396722529856        1.72749607201058        0.33586296360022
H            3.17751737389221       -1.68594632618270       -0.56593392783964
H           -1.82972954230462        3.19350725349542       -0.59627796189677
H           -3.17978500394103        2.05475642914632       -0.90402719302283
H           -2.80791686510761        2.58147758456950        0.75345826744660
H            0.17341481127855       -2.11950319165269        1.69147743985940
H           -0.87007500093551       -2.49613396203721       -1.21411223773724
H           -1.57799071709999       -2.34000310420397        1.18184850512812
H            1.45146266628687       -3.13278861733332       -1.32286866336996
25
 energy: -42.173552638859 gnorm: 0.043385830464 xtb: 6.6.1 (8d0f1dd)
C            2.86917189858463        0.71367554728718        0.46913475500094
N            1.84036510736278       -0.22093777271127        0.06656579380531
C            2.13783935295558       -1.40984758137301       -0.44380441458538
N            1.16443766096805       -2.24920253697121       -0.91314079603161
C           -0.19753588415105       -2.12093504736086       -0.53514037408735
C            0.52130256646665        0.16313406961115        0.23683278764315
C           -0.04278023653400        1.45432882874663        0.08648946961459
O            0.46216749109818        2.55646182978265        0.09693519614675
N           -1.44661386648112        1.23492803001878       -0.08523065553499
C           -2.38034075124524        2.32969555729795       -0.21966271477918
C           -1.79342499055563       -0.05198798088684       -0.15273062950050
O           -2.81797860863890       -0.64287685248769       -0.31398926261863
N           -0.50089019896093       -0.82348068104955        0.08041381249925
C           -0.56324098702743       -2.03795437440538        0.91095343980143
H            3.11378820976632        0.58135150354110        1.52515401370793
H            3.76591977030846        0.56535263937560       -0.12772939156306
H            2.49891449811549        1.73003256817902        0.32744070287262
H            3.16740245299811       -1.69020661580562       -0.57090170111983
H           -1.82847630338535        3.19220290783224       -0.59209689236801
H           -3.17473623918352        2.05099008759294       -0.90909608771442
H           -2.81301933786304        2.57620490819045        0.75149958340601
H            0.18858066477571       -2.12186614882747        1.68012146635229
H           -0.88830871563948       -2.50005989829616       -1.22442715149866
H           -1.56864448693064       -2.32608366708876        1.19506206104574
H            1.44653244729228       -3.13468077859359       -1.30748139259442
25
 energy: -42.174003300056 gnorm: 0.031854536960 xtb: 6.6.1 (8d0f1dd)
C            2.87109520474187        0.71521974931589        0.46754861967219
N            1.84172689540887       -0.21904174603046        0.06650808156814
C            2.13107531995303       -1.41015254940954       -0.44329279884196
N            1.15791533029351       -2.24629033752651       -0.91244455792364
C           -0.20254482603381       -2.11846433870954       -0.53599324689174
C            0.52223682144291        0.16336164408497        0.23746832372239
C           -0.04352811765921        1.45521967487853        0.09294719715131
O            0.46062918305683        2.55770207617684        0.11197770005523
N           -1.44641439324863        1.23487501866130       -0.08104336930338
C           -2.38115009503648        2.32769178357284       -0.21959666587940
C           -1.78892741373067       -0.05350461849351       -0.15381792949994
O           -2.81054178809703       -0.64552426458961       -0.33453640878480
N           -0.50007609855996       -0.82195377428092        0.08383922519516
C           -0.55641636943707       -2.03514743799005        0.90886594484105
H            3.10816393201450        0.59109686318665        1.52632809042813
H            3.77086000462605        0.55835803569312       -0.12263157218521
H            2.50420713874127        1.73147445043870        0.31530571769581
H            3.15895391449964       -1.69524459285281       -0.57554926923441
H           -1.82852808683004        3.19217932662373       -0.58609908260754
H           -3.16976498200096        2.04832479490217       -0.91550382436199
H           -2.82159429454241        2.57124311322836        0.74884355418949
H            0.20405221382945       -2.13029281562511        1.66766493510939
H           -0.90272570706960       -2.50006223735661       -1.23145723930893
H           -1.56135921865423       -2.31517374819408        1.20874445214532
H            1.44308694638811       -3.13765552810607       -1.29290425905071
25
 energy: -42.174358014553 gnorm: 0.018428243484 xtb: 6.6.1 (8d0f1dd)
C            2.87242942554560        0.71545093852472        0.46517652464293
N            1.84284340612079       -0.21769629429447        0.06540386965777
C            2.12781456484080       -1.41033064145378       -0.44476856777496
N            1.15436526746914       -2.24579287611373       -0.91397281147028
C           -0.20249207954483       -2.11342199288522       -0.53262344858713
C            0.52279881844852        0.16540302966885        0.23705016442380
C           -0.04424591280004        1.45737354061668        0.09861026727782
O            0.45948975276261        2.56002218497744        0.12331611533253
N           -1.44636882537397        1.23583912540888       -0.07731055190462
C           -2.38298806500064        2.32648722731645       -0.21929713278511
C           -1.78511745953331       -0.05388184010331       -0.15534754260230
O           -2.80457325633681       -0.64567240787078       -0.34946422282637
N           -0.49924794585866       -0.81981202950045        0.08772373122687
C           -0.55455547041157       -2.03349747682911        0.90889380340935
H            3.10008707294941        0.60004131832753        1.52699312482665
H            3.77558059043493        0.54809934865044       -0.11688321809745
H            2.51018274340864        1.73157462616618        0.30109176618321
H            3.15468105072042       -1.69883614525795       -0.57886500665166
H           -1.82974901459586        3.19373262938976       -0.57842312982022
H           -3.16518613606234        2.04742016883617       -0.92270550351794
H           -2.83242383057019        2.56612598140496        0.74599791646802
H            0.21545253000975       -2.14000287975532        1.65900133648369
H           -0.91289467512991       -2.49746985608940       -1.23554625043363
H           -1.55672182203508       -2.31167983522915        1.21956453471588
H            1.44127078463851       -3.14123730230713       -1.28244415027691
25
 energy: -42.174563265008 gnorm: 0.008284113514 xtb: 6.6.1 (8d0f1dd)
C            2.87263054227890        0.71437234701436        0.46271229274682
N            1.84299522752010       -0.21772338889080        0.06381401462153
C            2.12913620215401       -1.41020050877399       -0.44729878162273
N            1.15483764846979       -2.24713737425283       -0.91742848377312
C           -0.19879273912357       -2.10899056142398       -0.52837326329212
C            0.52311100372527        0.16791062103167        0.23635011257449
C           -0.04447103269510        1.45944806521643        0.10171582519776
O            0.45923747373511        2.56204891607273        0.12696164998855
N           -1.44648119706906        1.23702706058141       -0.07491495678858
C           -2.38473592349868        2.32631551431387       -0.21839796646998
C           -1.78364735704755       -0.05325211440419       -0.15665122622469
O           -2.80276730298242       -0.64368202842264       -0.35337955692923
N           -0.49839307994808       -0.81829010137647        0.08959883943601
C           -0.55696021528747       -2.03358806832509        0.91104997618674
H            3.09195913272657        0.60685862208596        1.52710481436620
H            3.77909621728215        0.53826127815381       -0.11143124961177
H            2.51550782864031        1.73051082726336        0.28834172841602
H            3.15598822276021       -1.69903691711239       -0.57980952564854
H           -1.83088789876319        3.19618418037434       -0.57033714158777
H           -3.16161054588535        2.04883183003440       -0.92844601596345
H           -2.84167831043069        2.56130107174067        0.74451839872523
H            0.21778314501192       -2.14348776045393        1.65848985356553
H           -0.91702520413887       -2.49466389098934       -1.23756309976746
H           -1.55598143550335       -2.31600849847021        1.22305069665344
H            1.44158111216493       -3.14477057938890       -1.27850531689890
