25
 energy: -42.061956542152 gnorm: 0.008709077441 xtb: 6.6.1 (8d0f1dd)
C            3.12627496513492        1.05823171363956        0.41208765856025
N            2.14895314376389        0.05242338850088        0.20752779264726
C            2.44816825971175       -1.24835523712855        0.10838587260868
N            1.31176489720883       -1.98178763713330        0.02333136624317
C            0.25864233241079       -1.12182933747559        0.05800684969544
C            0.76604139771447        0.17350887486625        0.17195335360060
C           -0.06713087366994        1.30227342823864        0.23467921930182
O            3.05995025277259        1.96713486823201       -0.92371728809576
N           -1.36861790218119        0.99226835974167        0.18147864294013
C           -2.33563781411289        2.07367173808922        0.25285977790339
C           -1.94883933841640       -0.27311951603784        0.06032406271246
O           -3.13794360821742       -0.43600895769321        0.00512536404477
N           -1.06204125407856       -1.36524660983479        0.00119508621161
C           -1.59955869338469       -2.70572982478575       -0.11728066006505
H            2.73858996608615        1.76699723281594        1.15020546328306
H            3.58778496506684        1.49360460971868       -1.60304353212245
H            3.50610551392988        2.79485109120304       -0.67446471017118
H            3.44158070020775       -1.64580655763154        0.13808665354068
H           -1.79410600641012        3.00882637483965        0.35795371928933
H           -2.94666826127257        2.08658536616063       -0.64989494322996
H           -2.99860206399172        1.92065232793078        1.10455739674496
H           -1.31131519919246       -3.30919615029943        0.74433726152121
H           -1.25155696412283       -3.17598922022462       -1.03779555876708
H           -2.68511613548542       -2.62045660774346       -0.14699276677128
H            1.27370923462865       -2.98926517639307       -0.02773446372208
