      -----------------------------------------------------------      
     |                   =====================                   |     
     |                           x T B                           |     
     |                   =====================                   |     
     |                         S. Grimme                         |     
     |          Mulliken Center for Theoretical Chemistry        |     
     |                    University of Bonn                     |     
      -----------------------------------------------------------      

   * xtb version 6.6.1 (8d0f1dd) compiled by 'conda@1efc2f54142f' on 2023-08-01

   xtb is free software: you can redistribute it and/or modify it under
   the terms of the GNU Lesser General Public License as published by
   the Free Software Foundation, either version 3 of the License, or
   (at your option) any later version.
   
   xtb is distributed in the hope that it will be useful,
   but WITHOUT ANY WARRANTY; without even the implied warranty of
   MERCHANTABILITY or FITNESS FOR A PARTICULAR PURPOSE.  See the
   GNU Lesser General Public License for more details.
   
   Cite this work as:
   * C. Bannwarth, E. Caldeweyher, S. Ehlert, A. Hansen, P. Pracht,
     J. Seibert, S. Spicher, S. Grimme, WIREs Comput. Mol. Sci., 2020, 11,
     e01493. DOI: 10.1002/wcms.1493
   
   for GFN2-xTB:
   * C. Bannwarth, S. Ehlert and S. Grimme., J. Chem. Theory Comput., 2019,
     15, 1652-1671. DOI: 10.1021/acs.jctc.8b01176
   for GFN1-xTB:
   * S. Grimme, C. Bannwarth, P. Shushkov, J. Chem. Theory Comput., 2017,
     13, 1989-2009. DOI: 10.1021/acs.jctc.7b00118
   for GFN0-xTB:
   * P. Pracht, E. Caldeweyher, S. Ehlert, S. Grimme, ChemRxiv, 2019, preprint.
     DOI: 10.26434/chemrxiv.8326202.v1
   for GFN-FF:
   * S. Spicher and S. Grimme, Angew. Chem. Int. Ed., 2020, 59, 15665-15673.
     DOI: 10.1002/anie.202004239
   
   for ALPB and GBSA implicit solvation:
   * S. Ehlert, M. Stahn, S. Spicher, S. Grimme, J. Chem. Theory Comput.,
     2021, 17, 4250-4261. DOI: 10.1021/acs.jctc.1c00471
   
   for DFT-D4:
   * E. Caldeweyher, C. Bannwarth and S. Grimme, J. Chem. Phys., 2017,
     147, 034112. DOI: 10.1063/1.4993215
   * E. Caldeweyher, S. Ehlert, A. Hansen, H. Neugebauer, S. Spicher,
     C. Bannwarth and S. Grimme, J. Chem. Phys., 2019, 150, 154122.
     DOI: 10.1063/1.5090222
   * E. Caldeweyher, J.-M. Mewes, S. Ehlert and S. Grimme, Phys. Chem. Chem. Phys.
     2020, 22, 8499-8512. DOI: 10.1039/D0CP00502A
   
   for sTDA-xTB:
   * S. Grimme and C. Bannwarth, J. Chem. Phys., 2016, 145, 054103.
     DOI: 10.1063/1.4959605
   
   in the mass-spec context:
   * V. Asgeirsson, C. Bauer and S. Grimme, Chem. Sci., 2017, 8, 4879.
     DOI: 10.1039/c7sc00601b
   * J. Koopman and S. Grimme, ACS Omega 2019, 4, 12, 15120-15133.
     DOI: 10.1021/acsomega.9b02011
   
   for metadynamics refer to:
   * S. Grimme, J. Chem. Theory Comput., 2019, 155, 2847-2862
     DOI: 10.1021/acs.jctc.9b00143
   
   for SPH calculations refer to:
   * S. Spicher and S. Grimme, J. Chem. Theory Comput., 2021, 17, 1701-1714
     DOI: 10.1021/acs.jctc.0c01306
   
   with help from (in alphabetical order)
   P. Atkinson, C. Bannwarth, F. Bohle, G. Brandenburg, E. Caldeweyher
   M. Checinski, S. Dohm, S. Ehlert, S. Ehrlich, I. Gerasimov, C. Hölzer
   A. Katbashev, J. Koopman, C. Lavigne, S. Lehtola, F. März, M. Müller,
   F. Musil, H. Neugebauer, J. Pisarek, C. Plett, P. Pracht, F. Pultar,
   J. Seibert, P. Shushkov, S. Spicher, M. Stahn, M. Steiner, T. Strunk,
   J. Stückrath, T. Rose, and J. Unsleber
   
 * started run on 2024/06/05 at 19:58:59.746     

           -------------------------------------------------
          |                Calculation Setup                |
           -------------------------------------------------

          program call               : xtb struc.xyz --opt loose --input .xc1 --gfn2
          hostname                   : n-62-29-9
          coordinate file            : struc.xyz
          omp threads                :                     1

   ID    Z sym.   atoms
    1    6 C      1, 3, 5-7, 10, 11, 14
    2    7 N      2, 4, 9, 13
    3    8 O      8, 12
    4    1 H      15-25
constraining bond 8 20 to    4.6333300 Å, actual value:    3.4833385 Å

           -------------------------------------------------
          |                 G F N 2 - x T B                 |
           -------------------------------------------------

        Reference                      10.1021/acs.jctc.8b01176
      * Hamiltonian:
        H0-scaling (s, p, d)           1.850000    2.230000    2.230000
        zeta-weighting                 0.500000
      * Dispersion:
        s8                             2.700000
        a1                             0.520000
        a2                             5.000000
        s9                             5.000000
      * Repulsion:
        kExp                           1.500000    1.000000
        rExp                           1.000000
      * Coulomb:
        alpha                          2.000000
        third order                    shell-resolved
        anisotropic                    true
        a3                             3.000000
        a5                             4.000000
        cn-shift                       1.200000
        cn-exp                         4.000000
        max-rad                        5.000000


          ...................................................
          :                      SETUP                      :
          :.................................................:
          :  # basis functions                  67          :
          :  # atomic orbitals                  67          :
          :  # shells                           39          :
          :  # electrons                        74          :
          :  max. iterations                   250          :
          :  Hamiltonian                  GFN2-xTB          :
          :  restarted?                      false          :
          :  GBSA solvation                  false          :
          :  PC potential                    false          :
          :  electronic temp.         7500.0000000     K    :
          :  accuracy                    1.0000000          :
          :  -> integral cutoff          0.2500000E+02      :
          :  -> integral neglect         0.1000000E-07      :
          :  -> SCF convergence          0.1000000E-05 Eh   :
          :  -> wf. convergence          0.1000000E-03 e    :
          :  Broyden damping             0.4000000          :
          ...................................................

 iter      E             dE          RMSdq      gap      omega  full diag
   1    -42.5960780 -0.425961E+02  0.440E+00    3.52       0.0  T
   2    -42.7780033 -0.181925E+00  0.248E+00    3.37       1.0  T
   3    -42.7871777 -0.917437E-02  0.149E+00    3.50       1.0  T
   4    -42.7817164  0.546128E-02  0.642E-01    3.42       1.0  T
   5    -42.7911189 -0.940247E-02  0.115E-01    3.49       1.0  T
   6    -42.7912109 -0.920486E-04  0.685E-02    3.46       1.0  T
   7    -42.7912647 -0.537856E-04  0.265E-02    3.48       1.0  T
   8    -42.7912686 -0.385526E-05  0.113E-02    3.47       1.8  T
   9    -42.7912697 -0.111307E-05  0.441E-03    3.47       4.5  T
  10    -42.7912698 -0.733569E-07  0.139E-03    3.47      14.4  T
  11    -42.7912698 -0.243437E-08  0.602E-04    3.47      33.2  T
  12    -42.7912698 -0.222032E-08  0.181E-04    3.47     110.6  T

   *** convergence criteria satisfied after 12 iterations ***

         #    Occupation            Energy/Eh            Energy/eV
      -------------------------------------------------------------
         1        2.0000           -0.9116047             -24.8060
       ...           ...                  ...                  ...
        31        1.9942           -0.6212459             -16.9050
        32        1.9930           -0.6166804             -16.7807
        33        1.9876           -0.6031136             -16.4116
        34        1.9710           -0.5827317             -15.8569
        35        1.9403           -0.5651917             -15.3796
        36        1.9387           -0.5645672             -15.3627
        37        1.9155           -0.5566412             -15.1470 (HOMO)
        38        0.1907           -0.4290919             -11.6762 (LUMO)
        39        0.0640           -0.4015676             -10.9272
        40        0.0206           -0.3740689             -10.1789
        41        0.0006           -0.2879107              -7.8344
        42        0.0000           -0.2065811              -5.6214
       ...           ...                  ...                  ...
        67                          0.5613577              15.2753
      -------------------------------------------------------------
                  HL-Gap            0.1275493 Eh            3.4708 eV
             Fermi-level           -0.4825284 Eh          -13.1303 eV

 SCC (total)                   0 d,  0 h,  0 min,  0.036 sec
 SCC setup                      ...        0 min,  0.000 sec (  0.654%)
 Dispersion                     ...        0 min,  0.000 sec (  0.797%)
 classical contributions        ...        0 min,  0.000 sec (  0.249%)
 integral evaluation            ...        0 min,  0.005 sec ( 14.165%)
 iterations                     ...        0 min,  0.018 sec ( 51.184%)
 molecular gradient             ...        0 min,  0.012 sec ( 32.462%)
 printout                       ...        0 min,  0.000 sec (  0.453%)

         :::::::::::::::::::::::::::::::::::::::::::::::::::::
         ::                     SUMMARY                     ::
         :::::::::::::::::::::::::::::::::::::::::::::::::::::
         :: total energy             -44.621381615512 Eh    ::
         :: gradient norm              3.070807488350 Eh/a0 ::
         :: HOMO-LUMO gap              3.470793873671 eV    ::
         ::.................................................::
         :: SCC energy               -42.791269777655 Eh    ::
         :: -> isotropic ES            0.136760385929 Eh    ::
         :: -> anisotropic ES         -0.005341405309 Eh    ::
         :: -> anisotropic XC          0.011501049227 Eh    ::
         :: -> dispersion             -0.022650340738 Eh    ::
         :: repulsion energy           0.531105277918 Eh    ::
         :: add. restraining          -2.361331274784 Eh    ::
         :: total charge               1.000000000010 e     ::
         :::::::::::::::::::::::::::::::::::::::::::::::::::::

      ----------------------------------------------------------- 
     |                   =====================                   |
     |                        A N C O P T                        |
     |                   =====================                   |
     |               Approximate Normal Coordinate               |
     |                Rational Function Optimizer                |
      ----------------------------------------------------------- 

          ...................................................
          :                      SETUP                      :
          :.................................................:
          :   optimization level             loose          :
          :   max. optcycles                   200          :
          :   ANC micro-cycles                  20          :
          :   degrees of freedom                69          :
          :.................................................:
          :   RF solver                   davidson          :
          :   write xtbopt.log                true          :
          :   linear?                        false          :
          :   energy convergence         0.5000000E-04 Eh   :
          :   grad. convergence          0.4000000E-02 Eh/α :
          :   maxmium RF displ.          1.0000000          :
          :   Hlow (freq-cutoff)         0.1000000E-01      :
          :   Hmax (freq-cutoff)         5.0000000          :
          :   S6 in model hess.         20.0000000          :
          ...................................................

generating ANC from model Hessian ...
Using Lindh-Hessian (1995)
 Shifting diagonal of input Hessian by    1.7818637198620051     
 Lowest  eigenvalues of input Hessian
    0.010000    0.000000    0.000000    0.000000    0.000000    0.000000
    0.000000    1.784705    1.788134    1.790668    1.791608    1.793414
    1.795132    1.800319    1.801036    1.802598    1.820414    1.821325
 Highest eigenvalues
    3.895046    3.934112    4.009090    4.068567    4.239389    4.339309


........................................................................
.............................. CYCLE    1 ..............................
........................................................................

 iter      E             dE          RMSdq      gap      omega  full diag
   1    -42.7912698 -0.427913E+02  0.838E-05    3.47       0.0  T
   2    -42.7912698 -0.247127E-10  0.452E-05    3.47     442.9  T
   3    -42.7912698 -0.149214E-11  0.279E-05    3.47     715.8  T
     SCC iter.                  ...        0 min,  0.005 sec
     gradient                   ...        0 min,  0.012 sec
 * total energy  :   -44.6213816 Eh     change       -0.2401990E-09 Eh
   gradient norm :     3.0708071 Eh/α   predicted     0.0000000E+00 (-100.00%)
   displ. norm   :     0.9956300 α      lambda       -0.3040834E+01
   maximum displ.:     0.9927846 α      in ANC's #1, #55, #69, ...

........................................................................
.............................. CYCLE    2 ..............................
........................................................................

 iter      E             dE          RMSdq      gap      omega  full diag
   1    -42.7995744 -0.427996E+02  0.807E-01    3.26       0.0  T
   2    -42.8024828 -0.290839E-02  0.488E-01    3.51       1.0  T
   3    -42.8023465  0.136351E-03  0.242E-01    3.38       1.0  T
   4    -42.8028274 -0.480960E-03  0.984E-02    3.52       1.0  T
   5    -42.8030340 -0.206607E-03  0.238E-02    3.47       1.0  T
   6    -42.8030365 -0.247174E-05  0.127E-02    3.47       1.6  T
   7    -42.8030374 -0.940861E-06  0.394E-03    3.47       5.1  T
   8    -42.8030376 -0.163255E-06  0.182E-03    3.47      11.0  T
   9    -42.8030376 -0.847555E-08  0.693E-04    3.47      28.9  T
  10    -42.8030376 -0.475274E-08  0.245E-04    3.47      81.7  T
     SCC iter.                  ...        0 min,  0.014 sec
     gradient                   ...        0 min,  0.012 sec
 * total energy  :   -48.5638933 Eh     change       -0.3942512E+01 Eh
   gradient norm :     4.8603590 Eh/α   predicted    -0.3035709E+01 ( -23.00%)
   displ. norm   :     0.9979728 α      lambda       -0.4847267E+01
   maximum displ.:     0.9963888 α      in ANC's #1, #69, #58, ...

........................................................................
.............................. CYCLE    3 ..............................
........................................................................

 iter      E             dE          RMSdq      gap      omega  full diag
   1    -42.6478302 -0.426478E+02  0.988E-01    1.81       0.0  T
   2    -42.6510670 -0.323687E-02  0.734E-01    2.57       1.0  T
   3    -42.6574679 -0.640089E-02  0.396E-01    2.09       1.0  T
   4    -42.6585232 -0.105526E-02  0.170E-01    2.28       1.0  T
   5    -42.6590298 -0.506659E-03  0.463E-02    2.24       1.0  T
   6    -42.6590455 -0.156569E-04  0.223E-02    2.24       1.0  T
   7    -42.6590494 -0.393267E-05  0.695E-03    2.24       2.9  T
   8    -42.6590503 -0.863058E-06  0.297E-03    2.24       6.7  T
   9    -42.6590503 -0.327151E-07  0.120E-03    2.24      16.6  T
  10    -42.6590503 -0.123593E-07  0.450E-04    2.24      44.5  T
  11    -42.6590503 -0.192195E-08  0.224E-04    2.24      89.2  T
     SCC iter.                  ...        0 min,  0.016 sec
     gradient                   ...        0 min,  0.012 sec
 * total energy  :   -54.3601795 Eh     change       -0.5796286E+01 Eh
   gradient norm :     6.8068384 Eh/α   predicted    -0.4837469E+01 ( -16.54%)
   displ. norm   :     0.9978170 α      lambda       -0.6787293E+01
   maximum displ.:     0.9945713 α      in ANC's #1, #58, #69, ...

........................................................................
.............................. CYCLE    4 ..............................
........................................................................

 iter      E             dE          RMSdq      gap      omega  full diag
   1    -42.2526818 -0.422527E+02  0.221E+00    0.93       0.0  T
   2    -42.2337771  0.189047E-01  0.208E+00    1.88       1.0  T
   3    -42.3786073 -0.144830E+00  0.611E-01    0.96       1.0  T
   4    -42.3774391  0.116827E-02  0.419E-01    1.04       1.0  T
   5    -42.3791475 -0.170841E-02  0.183E-01    0.96       1.0  T
   6    -42.3802838 -0.113637E-02  0.490E-02    1.00       1.0  T
   7    -42.3802906 -0.670209E-05  0.221E-02    1.00       1.0  T
   8    -42.3803055 -0.149119E-04  0.751E-03    1.00       2.7  T
   9    -42.3803062 -0.745494E-06  0.346E-03    1.00       5.8  T
  10    -42.3803063 -0.819307E-07  0.163E-03    1.00      12.2  T
  11    -42.3803063 -0.165300E-07  0.497E-04    1.00      40.2  T
  12    -42.3803063 -0.322842E-08  0.220E-04    1.00      90.8  T
     SCC iter.                  ...        0 min,  0.017 sec
     gradient                   ...        0 min,  0.012 sec
 * total energy  :   -62.1227574 Eh     change       -0.7762578E+01 Eh
   gradient norm :     8.7670760 Eh/α   predicted    -0.6772504E+01 ( -12.75%)
   displ. norm   :     0.9972885 α      lambda       -0.8736383E+01
   maximum displ.:     0.9912431 α      in ANC's #1, #55, #69, ...

........................................................................
.............................. CYCLE    5 ..............................
........................................................................

 iter      E             dE          RMSdq      gap      omega  full diag
   1    -41.9866168 -0.419866E+02  0.265E+00    1.11       0.0  T
   2    -41.9018379  0.847790E-01  0.291E+00    1.05       1.0  T
   3    -42.1682696 -0.266432E+00  0.104E+00    0.57       1.0  T
   4    -42.1665019  0.176762E-02  0.403E-01    0.51       1.0  T
   5    -42.1681813 -0.167938E-02  0.209E-01    0.55       1.0  T
   6    -42.1691372 -0.955874E-03  0.108E-01    0.54       1.0  T
   7    -42.1694626 -0.325417E-03  0.342E-02    0.55       1.0  T
   8    -42.1694648 -0.214957E-05  0.216E-02    0.55       1.0  T
   9    -42.1694738 -0.899022E-05  0.559E-03    0.55       3.6  T
  10    -42.1694743 -0.578135E-06  0.270E-03    0.55       7.4  T
  11    -42.1694744 -0.627770E-07  0.946E-04    0.55      21.1  T
  12    -42.1694744 -0.148200E-07  0.353E-04    0.55      56.6  T
     SCC iter.                  ...        0 min,  0.017 sec
     gradient                   ...        0 min,  0.012 sec
 * total energy  :   -71.1098203 Eh     change       -0.8987063E+01 Eh
   gradient norm :     6.0658718 Eh/α   predicted    -0.8712781E+01 (  -3.05%)
   displ. norm   :     0.8084041 α      lambda       -0.4892844E+01
   maximum displ.:     0.7831931 α      in ANC's #1, #55, #56, ...

........................................................................
.............................. CYCLE    6 ..............................
........................................................................

 iter      E             dE          RMSdq      gap      omega  full diag
   1    -41.9775609 -0.419776E+02  0.273E+00    0.65       0.0  T
   2    -41.7674091  0.210152E+00  0.348E+00    1.06       1.0  T
   3    -42.1928761 -0.425467E+00  0.108E+00    0.96       1.0  T
   4    -42.1927189  0.157187E-03  0.777E-01    0.69       1.0  T
   5    -42.1937097 -0.990782E-03  0.451E-01    0.95       1.0  T
   6    -42.1993138 -0.560413E-02  0.172E-01    0.76       1.0  T
   7    -42.2002941 -0.980281E-03  0.539E-02    0.81       1.0  T
   8    -42.2003332 -0.391248E-04  0.257E-02    0.82       1.0  T
   9    -42.2003356 -0.239540E-05  0.885E-03    0.82       2.3  T
  10    -42.2003374 -0.178011E-05  0.248E-03    0.82       8.1  T
  11    -42.2003374 -0.199731E-07  0.112E-03    0.82      17.9  T
  12    -42.2003374 -0.781876E-08  0.427E-04    0.82      46.8  T
  13    -42.2003374 -0.224261E-08  0.156E-04    0.82     128.6  T
     SCC iter.                  ...        0 min,  0.018 sec
     gradient                   ...        0 min,  0.012 sec
 * total energy  :   -46.0943272 Eh     change        0.2501549E+02 Eh
   gradient norm :   319.3623994 Eh/α   predicted    -0.4045201E+01 (-116.17%)
   displ. norm   :     0.9960506 α      lambda       -0.3181009E+03
   maximum displ.:     0.8962976 α      in ANC's #1, #55, #47, ...

........................................................................
.............................. CYCLE    7 ..............................
........................................................................

 iter      E             dE          RMSdq      gap      omega  full diag
   1    -42.1853840 -0.421854E+02  0.210E+00    0.20       0.0  T
   2    -42.1316280  0.537560E-01  0.217E+00    1.54       1.0  T
   3    -42.2621700 -0.130542E+00  0.785E-01    0.88       1.0  T
   4    -42.2612555  0.914521E-03  0.328E-01    0.87       1.0  T
   5    -42.2630219 -0.176644E-02  0.141E-01    0.97       1.0  T
   6    -42.2636453 -0.623343E-03  0.620E-02    0.89       1.0  T
   7    -42.2637619 -0.116674E-03  0.243E-02    0.93       1.0  T
   8    -42.2637671 -0.516909E-05  0.113E-02    0.92       1.8  T
   9    -42.2637691 -0.195088E-05  0.406E-03    0.92       4.9  T
  10    -42.2637694 -0.353813E-06  0.155E-03    0.92      12.9  T
  11    -42.2637694 -0.111578E-07  0.568E-04    0.92      35.2  T
  12    -42.2637694 -0.985445E-09  0.159E-04    0.92     125.8  T
     SCC iter.                  ...        0 min,  0.017 sec
     gradient                   ...        0 min,  0.012 sec
 * total energy  :   -67.4495846 Eh     change       -0.2135526E+02 Eh
   gradient norm :     9.7151921 Eh/α   predicted    -0.3168470E+03 (1383.70%)
   displ. norm   :     0.2905161 α      lambda       -0.5210088E+00
   maximum displ.:     0.0807545 α      in ANC's #44, #21, #24, ...

........................................................................
.............................. CYCLE    8 ..............................
........................................................................

 iter      E             dE          RMSdq      gap      omega  full diag
   1    -42.3409128 -0.423409E+02  0.957E-01    1.84       0.0  T
   2    -42.3092635  0.316492E-01  0.136E+00    0.53       1.0  T
   3    -42.3711031 -0.618396E-01  0.319E-01    1.33       1.0  T
   4    -42.3708866  0.216532E-03  0.203E-01    1.18       1.0  T
   5    -42.3713584 -0.471788E-03  0.862E-02    1.21       1.0  T
   6    -42.3715323 -0.173894E-03  0.311E-02    1.25       1.0  T
   7    -42.3715487 -0.164156E-04  0.187E-02    1.25       1.1  T
   8    -42.3715550 -0.628336E-05  0.879E-03    1.25       2.3  T
   9    -42.3715562 -0.119750E-05  0.229E-03    1.25       8.7  T
  10    -42.3715562 -0.859499E-08  0.129E-03    1.26      15.5  T
  11    -42.3715562 -0.271634E-07  0.473E-04    1.26      42.3  T
  12    -42.3715562 -0.508510E-08  0.136E-04    1.25     146.8  T
     SCC iter.                  ...        0 min,  0.017 sec
     gradient                   ...        0 min,  0.011 sec
 * total energy  :   -67.8103829 Eh     change       -0.3607983E+00 Eh
   gradient norm :     9.6819286 Eh/α   predicted    -0.2824998E+00 ( -21.70%)
   displ. norm   :     0.5122438 α      lambda       -0.1255959E+01
   maximum displ.:     0.1880617 α      in ANC's #55, #34, #21, ...

........................................................................
.............................. CYCLE    9 ..............................
........................................................................

 iter      E             dE          RMSdq      gap      omega  full diag
   1    -42.4549112 -0.424549E+02  0.773E-01    1.83       0.0  T
   2    -42.4519502  0.296108E-02  0.717E-01    1.21       1.0  T
   3    -42.4611862 -0.923606E-02  0.364E-01    1.68       1.0  T
   4    -42.4629705 -0.178424E-02  0.183E-01    1.49       1.0  T
   5    -42.4631460 -0.175550E-03  0.978E-02    1.51       1.0  T
   6    -42.4634487 -0.302705E-03  0.319E-02    1.53       1.0  T
   7    -42.4634572 -0.851928E-05  0.165E-02    1.54       1.2  T
   8    -42.4634596 -0.233737E-05  0.768E-03    1.54       2.6  T
   9    -42.4634604 -0.838848E-06  0.283E-03    1.54       7.1  T
  10    -42.4634604 -0.297391E-07  0.117E-03    1.54      17.1  T
  11    -42.4634605 -0.204564E-07  0.380E-04    1.53      52.7  T
  12    -42.4634605 -0.918590E-09  0.981E-05    1.53     203.9  T
     SCC iter.                  ...        0 min,  0.017 sec
     gradient                   ...        0 min,  0.012 sec
 * total energy  :   -68.9642405 Eh     change       -0.1153858E+01 Eh
   gradient norm :     9.5383772 Eh/α   predicted    -0.7927580E+00 ( -31.29%)
   displ. norm   :     0.6149037 α      lambda       -0.3261792E+01
   maximum displ.:     0.2428586 α      in ANC's #1, #47, #55, ...

........................................................................
.............................. CYCLE   10 ..............................
........................................................................

 iter      E             dE          RMSdq      gap      omega  full diag
   1    -42.4544163 -0.424544E+02  0.112E+00    1.63       0.0  T
   2    -42.3997101  0.547061E-01  0.151E+00    0.70       1.0  T
   3    -42.4807859 -0.810758E-01  0.426E-01    1.66       1.0  T
   4    -42.4845487 -0.376275E-02  0.314E-01    1.34       1.0  T
   5    -42.4860771 -0.152845E-02  0.652E-02    1.48       1.0  T
   6    -42.4860986 -0.214559E-04  0.477E-02    1.45       1.0  T
   7    -42.4861660 -0.674126E-04  0.173E-02    1.46       1.2  T
   8    -42.4861701 -0.407178E-05  0.839E-03    1.45       2.4  T
   9    -42.4861711 -0.100478E-05  0.325E-03    1.45       6.1  T
  10    -42.4861712 -0.746320E-07  0.174E-03    1.45      11.5  T
  11    -42.4861712 -0.385980E-07  0.762E-04    1.45      26.2  T
  12    -42.4861712 -0.122976E-07  0.240E-04    1.45      83.5  T
     SCC iter.                  ...        0 min,  0.017 sec
     gradient                   ...        0 min,  0.012 sec
 * total energy  :   -71.6224334 Eh     change       -0.2658193E+01 Eh
   gradient norm :     5.0585104 Eh/α   predicted    -0.2247550E+01 ( -15.45%)
   displ. norm   :     0.4785889 α      lambda       -0.1967295E+01
   maximum displ.:     0.2904253 α      in ANC's #1, #48, #55, ...

........................................................................
.............................. CYCLE   11 ..............................
........................................................................

 iter      E             dE          RMSdq      gap      omega  full diag
   1    -42.5028000 -0.425028E+02  0.783E-01    1.32       0.0  T
   2    -42.5025315  0.268503E-03  0.494E-01    1.34       1.0  T
   3    -42.4940899  0.844162E-02  0.519E-01    1.32       1.0  T
   4    -42.5031948 -0.910490E-02  0.135E-01    1.27       1.0  T
   5    -42.5035476 -0.352841E-03  0.937E-02    1.39       1.0  T
   6    -42.5038950 -0.347339E-03  0.238E-02    1.33       1.0  T
   7    -42.5039005 -0.546998E-05  0.962E-03    1.33       2.1  T
   8    -42.5039018 -0.135616E-05  0.376E-03    1.33       5.3  T
   9    -42.5039019 -0.132496E-06  0.184E-03    1.33      10.9  T
  10    -42.5039020 -0.393245E-07  0.532E-04    1.33      37.6  T
  11    -42.5039020 -0.455452E-08  0.213E-04    1.33      93.7  T
     SCC iter.                  ...        0 min,  0.016 sec
     gradient                   ...        0 min,  0.012 sec
 * total energy  :   -70.1578630 Eh     change        0.1464570E+01 Eh
   gradient norm :    24.3717748 Eh/α   predicted    -0.1208950E+01 (-182.55%)
   displ. norm   :     0.4251024 α      lambda       -0.4860220E+01
   maximum displ.:     0.1830782 α      in ANC's #46, #48, #44, ...

........................................................................
.............................. CYCLE   12 ..............................
........................................................................

 iter      E             dE          RMSdq      gap      omega  full diag
   1    -42.5174760 -0.425175E+02  0.760E-01    1.19       0.0  T
   2    -42.5031883  0.142876E-01  0.817E-01    1.53       1.0  T
   3    -42.5197438 -0.165554E-01  0.419E-01    1.20       1.0  T
   4    -42.5240885 -0.434476E-02  0.151E-01    1.42       1.0  T
   5    -42.5240881  0.468675E-06  0.893E-02    1.35       1.0  T
   6    -42.5243773 -0.289206E-03  0.225E-02    1.38       1.0  T
   7    -42.5243848 -0.756719E-05  0.946E-03    1.37       2.1  T
   8    -42.5243850 -0.154284E-06  0.292E-03    1.37       6.9  T
   9    -42.5243851 -0.146540E-06  0.136E-03    1.37      14.7  T
  10    -42.5243852 -0.215019E-07  0.593E-04    1.37      33.7  T
  11    -42.5243852 -0.348452E-08  0.193E-04    1.37     103.7  T
     SCC iter.                  ...        0 min,  0.016 sec
     gradient                   ...        0 min,  0.012 sec
 * total energy  :   -71.6965655 Eh     change       -0.1538703E+01 Eh
   gradient norm :     5.0579786 Eh/α   predicted    -0.2869260E+01 (  86.47%)
   displ. norm   :     0.6375334 α      lambda       -0.1635756E+01
   maximum displ.:     0.2756968 α      in ANC's #1, #48, #46, ...

........................................................................
.............................. CYCLE   13 ..............................
........................................................................

 iter      E             dE          RMSdq      gap      omega  full diag
   1    -42.4977403 -0.424977E+02  0.107E+00    1.54       0.0  T
   2    -42.4942487  0.349163E-02  0.730E-01    1.13       1.0  T
   3    -42.4707263  0.235224E-01  0.884E-01    1.68       1.0  T
   4    -42.5020768 -0.313504E-01  0.233E-01    1.36       1.0  T
   5    -42.5024375 -0.360773E-03  0.145E-01    1.40       1.0  T
   6    -42.5031079 -0.670331E-03  0.438E-02    1.40       1.0  T
   7    -42.5031296 -0.217230E-04  0.165E-02    1.39       1.2  T
   8    -42.5031350 -0.537828E-05  0.492E-03    1.39       4.1  T
   9    -42.5031350 -0.503570E-07  0.224E-03    1.39       8.9  T
  10    -42.5031351 -0.131808E-06  0.742E-04    1.39      27.0  T
  11    -42.5031352 -0.346194E-08  0.269E-04    1.39      74.4  T
     SCC iter.                  ...        0 min,  0.016 sec
     gradient                   ...        0 min,  0.011 sec
 * total energy  :   -71.8369882 Eh     change       -0.1404227E+00 Eh
   gradient norm :     3.7060576 Eh/α   predicted    -0.1150304E+01 ( 719.17%)
   displ. norm   :     0.2784039 α      lambda       -0.5129392E+00
   maximum displ.:     0.1181153 α      in ANC's #1, #48, #69, ...

........................................................................
.............................. CYCLE   14 ..............................
........................................................................

 iter      E             dE          RMSdq      gap      omega  full diag
   1    -42.5154055 -0.425154E+02  0.446E-01    1.33       0.0  T
   2    -42.5138146  0.159094E-02  0.384E-01    1.58       1.0  T
   3    -42.5142735 -0.458976E-03  0.303E-01    1.27       1.0  T
   4    -42.5167872 -0.251364E-02  0.111E-01    1.44       1.0  T
   5    -42.5168592 -0.720362E-04  0.776E-02    1.42       1.0  T
   6    -42.5170653 -0.206098E-03  0.131E-02    1.42       1.5  T
   7    -42.5170653 -0.350058E-07  0.727E-03    1.42       2.8  T
   8    -42.5170661 -0.814859E-06  0.251E-03    1.42       8.0  T
   9    -42.5170662 -0.811823E-07  0.121E-03    1.42      16.5  T
  10    -42.5170662 -0.119053E-07  0.296E-04    1.42      67.7  T
  11    -42.5170662 -0.134533E-08  0.129E-04    1.42     154.9  T
     SCC iter.                  ...        0 min,  0.015 sec
     gradient                   ...        0 min,  0.012 sec
 * total energy  :   -71.9977763 Eh     change       -0.1607882E+00 Eh
   gradient norm :     1.4809475 Eh/α   predicted    -0.2763483E+00 (  71.87%)
   displ. norm   :     0.0609709 α      lambda       -0.2321941E-01
   maximum displ.:     0.0165100 α      in ANC's #1, #51, #58, ...

........................................................................
.............................. CYCLE   15 ..............................
........................................................................

 iter      E             dE          RMSdq      gap      omega  full diag
   1    -42.5206610 -0.425207E+02  0.903E-02    1.42       0.0  T
   2    -42.5206312  0.297438E-04  0.563E-02    1.45       1.0  T
   3    -42.5205492  0.820262E-04  0.735E-02    1.40       1.0  T
   4    -42.5207157 -0.166546E-03  0.163E-02    1.43       1.2  T
   5    -42.5207121  0.363562E-05  0.139E-02    1.42       1.4  T
   6    -42.5207193 -0.717353E-05  0.187E-03    1.43      10.7  T
   7    -42.5207193 -0.387987E-07  0.101E-03    1.43      19.8  T
   8    -42.5207193 -0.398406E-08  0.410E-04    1.43      48.7  T
   9    -42.5207193 -0.325677E-08  0.163E-04    1.43     122.8  T
     SCC iter.                  ...        0 min,  0.013 sec
     gradient                   ...        0 min,  0.011 sec
 * total energy  :   -72.0162973 Eh     change       -0.1852100E-01 Eh
   gradient norm :     0.7207816 Eh/α   predicted    -0.1165291E-01 ( -37.08%)
   displ. norm   :     0.1635279 α      lambda       -0.2705943E-01
   maximum displ.:     0.0449351 α      in ANC's #51, #58, #69, ...

........................................................................
.............................. CYCLE   16 ..............................
........................................................................

 iter      E             dE          RMSdq      gap      omega  full diag
   1    -42.5299253 -0.425299E+02  0.239E-01    1.44       0.0  T
   2    -42.5300948 -0.169494E-03  0.116E-01    1.48       1.0  T
   3    -42.5294955  0.599274E-03  0.159E-01    1.39       1.0  T
   4    -42.5302674 -0.771857E-03  0.392E-02    1.46       1.0  T
   5    -42.5302665  0.899868E-06  0.183E-02    1.44       1.1  T
   6    -42.5302789 -0.124614E-04  0.515E-03    1.45       3.9  T
   7    -42.5302793 -0.362956E-06  0.236E-03    1.45       8.5  T
   8    -42.5302793 -0.437953E-07  0.769E-04    1.45      26.0  T
   9    -42.5302793 -0.578277E-08  0.387E-04    1.45      51.7  T
     SCC iter.                  ...        0 min,  0.013 sec
     gradient                   ...        0 min,  0.011 sec
 * total energy  :   -72.0331324 Eh     change       -0.1683508E-01 Eh
   gradient norm :     0.2508369 Eh/α   predicted    -0.1389360E-01 ( -17.47%)
   displ. norm   :     0.1211355 α      lambda       -0.7463997E-02
   maximum displ.:     0.0362005 α      in ANC's #55, #30, #51, ...

........................................................................
.............................. CYCLE   17 ..............................
........................................................................

 iter      E             dE          RMSdq      gap      omega  full diag
   1    -42.5365153 -0.425365E+02  0.185E-01    1.45       0.0  T
   2    -42.5367174 -0.202096E-03  0.891E-02    1.43       1.0  T
   3    -42.5365792  0.138200E-03  0.713E-02    1.47       1.0  T
   4    -42.5366636 -0.843670E-04  0.588E-02    1.42       1.0  T
   5    -42.5367553 -0.917036E-04  0.115E-02    1.44       1.7  T
   6    -42.5367599 -0.465834E-05  0.399E-03    1.44       5.0  T
   7    -42.5367602 -0.244559E-06  0.154E-03    1.44      13.0  T
   8    -42.5367602 -0.801412E-08  0.647E-04    1.44      30.9  T
   9    -42.5367602 -0.458325E-08  0.288E-04    1.44      69.5  T
     SCC iter.                  ...        0 min,  0.013 sec
     gradient                   ...        0 min,  0.012 sec
 * total energy  :   -72.0390987 Eh     change       -0.5966273E-02 Eh
   gradient norm :     0.4297609 Eh/α   predicted    -0.3786946E-02 ( -36.53%)
   displ. norm   :     0.2504875 α      lambda       -0.1340416E-01
   maximum displ.:     0.0844091 α      in ANC's #55, #30, #34, ...

........................................................................
.............................. CYCLE   18 ..............................
........................................................................

 iter      E             dE          RMSdq      gap      omega  full diag
   1    -42.5457278 -0.425457E+02  0.426E-01    1.42       0.0  T
   2    -42.5457573 -0.294756E-04  0.294E-01    1.29       1.0  T
   3    -42.5454634  0.293900E-03  0.238E-01    1.49       1.0  T
   4    -42.5475745 -0.211112E-02  0.108E-01    1.35       1.0  T
   5    -42.5477325 -0.158007E-03  0.330E-02    1.38       1.0  T
   6    -42.5477705 -0.380361E-04  0.901E-03    1.38       2.2  T
   7    -42.5477719 -0.140841E-05  0.379E-03    1.38       5.3  T
   8    -42.5477720 -0.560202E-07  0.152E-03    1.38      13.2  T
   9    -42.5477720 -0.214631E-07  0.746E-04    1.38      26.8  T
  10    -42.5477720 -0.436818E-08  0.305E-04    1.38      65.6  T
     SCC iter.                  ...        0 min,  0.014 sec
     gradient                   ...        0 min,  0.012 sec
 * total energy  :   -72.0490447 Eh     change       -0.9945984E-02 Eh
   gradient norm :     0.4951551 Eh/α   predicted    -0.7122568E-02 ( -28.39%)
   displ. norm   :     0.2922355 α      lambda       -0.1370682E-01
   maximum displ.:     0.1057694 α      in ANC's #55, #30, #12, ...

........................................................................
.............................. CYCLE   19 ..............................
........................................................................

 iter      E             dE          RMSdq      gap      omega  full diag
   1    -42.5517529 -0.425518E+02  0.551E-01    1.34       0.0  T
   2    -42.5484145  0.333841E-02  0.510E-01    1.12       1.0  T
   3    -42.5547128 -0.629833E-02  0.249E-01    1.37       1.0  T
   4    -42.5567395 -0.202671E-02  0.134E-01    1.26       1.0  T
   5    -42.5569244 -0.184863E-03  0.472E-02    1.29       1.0  T
   6    -42.5569973 -0.729479E-04  0.122E-02    1.29       1.6  T
   7    -42.5570003 -0.299188E-05  0.538E-03    1.29       3.7  T
   8    -42.5570005 -0.201506E-06  0.187E-03    1.29      10.7  T
   9    -42.5570005 -0.328488E-07  0.103E-03    1.29      19.5  T
  10    -42.5570006 -0.772045E-08  0.445E-04    1.29      44.9  T
  11    -42.5570006 -0.220769E-08  0.157E-04    1.29     127.7  T
     SCC iter.                  ...        0 min,  0.016 sec
     gradient                   ...        0 min,  0.011 sec
 * total energy  :   -72.0599609 Eh     change       -0.1091623E-01 Eh
   gradient norm :     0.3873310 Eh/α   predicted    -0.7439038E-02 ( -31.85%)
   displ. norm   :     0.3918506 α      lambda       -0.1851774E-01
   maximum displ.:     0.1483435 α      in ANC's #55, #30, #12, ...

........................................................................
.............................. CYCLE   20 ..............................
........................................................................

 iter      E             dE          RMSdq      gap      omega  full diag
   1    -42.5522908 -0.425523E+02  0.730E-01    1.17       0.0  T
   2    -42.5392343  0.130565E-01  0.812E-01    0.93       1.0  T
   3    -42.5620759 -0.228417E-01  0.278E-01    1.24       1.0  T
   4    -42.5637893 -0.171331E-02  0.193E-01    1.18       1.0  T
   5    -42.5642776 -0.488339E-03  0.607E-02    1.20       1.0  T
   6    -42.5643803 -0.102717E-03  0.209E-02    1.21       1.0  T
   7    -42.5643915 -0.111588E-04  0.939E-03    1.20       2.1  T
   8    -42.5643925 -0.106182E-05  0.260E-03    1.20       7.7  T
   9    -42.5643926 -0.546876E-07  0.132E-03    1.20      15.1  T
  10    -42.5643926 -0.908630E-08  0.675E-04    1.20      29.6  T
  11    -42.5643926 -0.484123E-08  0.230E-04    1.20      87.1  T
     SCC iter.                  ...        0 min,  0.015 sec
     gradient                   ...        0 min,  0.011 sec
 * total energy  :   -72.0741592 Eh     change       -0.1419826E-01 Eh
   gradient norm :     0.1523044 Eh/α   predicted    -0.1068057E-01 ( -24.78%)
   displ. norm   :     0.3734398 α      lambda       -0.1425990E-01
   maximum displ.:     0.1492229 α      in ANC's #55, #30, #12, ...
 * RMSD in coord.:     1.1779155 α      energy gain  -0.2745278E+02 Eh

generating ANC from model Hessian ...
Using Lindh-Hessian (1995)
 Shifting diagonal of input Hessian by    8.2323889620078798E-003
 Lowest  eigenvalues of input Hessian
    0.000000    0.000000    0.000000    0.000000    0.000000    0.000000
    0.010000    0.011130    0.014386    0.015531    0.016408    0.020266
    0.020785    0.022307    0.025473    0.025960    0.031667    0.043832
 Highest eigenvalues
    2.125662    2.183441    2.221550    2.449175   21.041091   22.099602


........................................................................
.............................. CYCLE   21 ..............................
........................................................................

 iter      E             dE          RMSdq      gap      omega  full diag
   1    -42.5580611 -0.425581E+02  0.598E-01    1.13       0.0  T
   2    -42.5411744  0.168867E-01  0.793E-01    0.92       1.0  T
   3    -42.5665770 -0.254026E-01  0.220E-01    1.17       1.0  T
   4    -42.5667054 -0.128446E-03  0.175E-01    1.17       1.0  T
   5    -42.5673775 -0.672114E-03  0.478E-02    1.17       1.0  T
   6    -42.5674295 -0.519745E-04  0.210E-02    1.18       1.0  T
   7    -42.5674392 -0.966187E-05  0.117E-02    1.17       1.7  T
   8    -42.5674414 -0.221636E-05  0.304E-03    1.17       6.6  T
   9    -42.5674415 -0.178945E-06  0.145E-03    1.17      13.8  T
  10    -42.5674416 -0.144074E-07  0.887E-04    1.17      22.6  T
  11    -42.5674416 -0.887388E-08  0.304E-04    1.17      65.9  T
     SCC iter.                  ...        0 min,  0.016 sec
     gradient                   ...        0 min,  0.011 sec
 * total energy  :   -72.0844468 Eh     change       -0.1028760E-01 Eh
   gradient norm :     0.0833936 Eh/α   predicted     0.0000000E+00 (-100.00%)
   displ. norm   :     0.4544608 α      lambda       -0.1908918E-01
   maximum displ.:     0.2429822 α      in ANC's #11, #16, #6, ...

........................................................................
.............................. CYCLE   22 ..............................
........................................................................

 iter      E             dE          RMSdq      gap      omega  full diag
   1    -42.5826303 -0.425826E+02  0.416E-01    1.28       0.0  T
   2    -42.5816335  0.996813E-03  0.300E-01    1.30       1.0  T
   3    -42.5808286  0.804877E-03  0.286E-01    1.23       1.0  T
   4    -42.5830714 -0.224273E-02  0.105E-01    1.31       1.0  T
   5    -42.5834291 -0.357783E-03  0.197E-02    1.28       1.0  T
   6    -42.5834343 -0.515620E-05  0.118E-02    1.29       1.7  T
   7    -42.5834375 -0.319505E-05  0.578E-03    1.29       3.5  T
   8    -42.5834380 -0.507593E-06  0.180E-03    1.29      11.1  T
   9    -42.5834380 -0.426918E-07  0.943E-04    1.29      21.2  T
  10    -42.5834381 -0.146564E-07  0.372E-04    1.29      53.8  T
     SCC iter.                  ...        0 min,  0.014 sec
     gradient                   ...        0 min,  0.011 sec
 * total energy  :   -72.0894710 Eh     change       -0.5024261E-02 Eh
   gradient norm :     1.0569116 Eh/α   predicted    -0.1154987E-01 ( 129.88%)
   displ. norm   :     0.6381137 α      lambda       -0.5620624E-01
   maximum displ.:     0.2849189 α      in ANC's #11, #16, #30, ...

........................................................................
.............................. CYCLE   23 ..............................
........................................................................

 iter      E             dE          RMSdq      gap      omega  full diag
   1    -42.5787408 -0.425787E+02  0.645E-01    1.26       0.0  T
   2    -42.5688774  0.986333E-02  0.640E-01    1.42       1.0  T
   3    -42.5793512 -0.104737E-01  0.396E-01    1.24       1.0  T
   4    -42.5820396 -0.268843E-02  0.145E-01    1.36       1.0  T
   5    -42.5828027 -0.763125E-03  0.463E-02    1.32       1.0  T
   6    -42.5828632 -0.605108E-04  0.184E-02    1.33       1.1  T
   7    -42.5828666 -0.337919E-05  0.781E-03    1.33       2.6  T
   8    -42.5828675 -0.861155E-06  0.420E-03    1.33       4.8  T
   9    -42.5828678 -0.377879E-06  0.195E-03    1.33      10.3  T
  10    -42.5828679 -0.523991E-07  0.102E-03    1.33      19.7  T
  11    -42.5828679 -0.193448E-07  0.216E-04    1.33      92.7  T
  12    -42.5828679 -0.491418E-09  0.816E-05    1.33     245.1  T
     SCC iter.                  ...        0 min,  0.017 sec
     gradient                   ...        0 min,  0.011 sec
 * total energy  :   -72.0917930 Eh     change       -0.2321969E-02 Eh
   gradient norm :     1.2399778 Eh/α   predicted    -0.3954647E-01 (1603.14%)
   displ. norm   :     0.2385850 α      lambda       -0.3702506E-01
   maximum displ.:     0.0785882 α      in ANC's #24, #27, #18, ...

........................................................................
.............................. CYCLE   24 ..............................
........................................................................

 iter      E             dE          RMSdq      gap      omega  full diag
   1    -42.6019585 -0.426020E+02  0.259E-01    1.43       0.0  T
   2    -42.5996641  0.229435E-02  0.305E-01    1.32       1.0  T
   3    -42.6030949 -0.343074E-02  0.124E-01    1.41       1.0  T
   4    -42.6029898  0.105086E-03  0.797E-02    1.37       1.0  T
   5    -42.6032491 -0.259279E-03  0.164E-02    1.40       1.2  T
   6    -42.6032558 -0.672163E-05  0.640E-03    1.39       3.1  T
   7    -42.6032559 -0.112853E-06  0.331E-03    1.39       6.0  T
   8    -42.6032561 -0.197517E-06  0.125E-03    1.39      16.1  T
   9    -42.6032561 -0.235954E-07  0.536E-04    1.39      37.3  T
  10    -42.6032561 -0.524928E-08  0.210E-04    1.39      95.2  T
     SCC iter.                  ...        0 min,  0.014 sec
     gradient                   ...        0 min,  0.011 sec
 * total energy  :   -72.1137953 Eh     change       -0.2200226E-01 Eh
   gradient norm :     0.0819485 Eh/α   predicted    -0.1956711E-01 ( -11.07%)
   displ. norm   :     0.3961333 α      lambda       -0.1463432E-01
   maximum displ.:     0.1417009 α      in ANC's #15, #18, #38, ...

........................................................................
.............................. CYCLE   25 ..............................
........................................................................

 iter      E             dE          RMSdq      gap      omega  full diag
   1    -42.6207184 -0.426207E+02  0.339E-01    1.56       0.0  T
   2    -42.6196633  0.105515E-02  0.307E-01    1.47       1.0  T
   3    -42.6221413 -0.247798E-02  0.158E-01    1.56       1.0  T
   4    -42.6222313 -0.900077E-04  0.898E-02    1.50       1.0  T
   5    -42.6224758 -0.244591E-03  0.335E-02    1.54       1.0  T
   6    -42.6225123 -0.364708E-04  0.694E-03    1.53       2.9  T
   7    -42.6225128 -0.492231E-06  0.323E-03    1.53       6.2  T
   8    -42.6225129 -0.818460E-07  0.132E-03    1.53      15.1  T
   9    -42.6225129 -0.254515E-07  0.406E-04    1.53      49.3  T
  10    -42.6225129 -0.560298E-09  0.278E-04    1.53      71.9  T
     SCC iter.                  ...        0 min,  0.014 sec
     gradient                   ...        0 min,  0.011 sec
 * total energy  :   -72.1285257 Eh     change       -0.1473041E-01 Eh
   gradient norm :     0.3411818 Eh/α   predicted    -0.8465381E-02 ( -42.53%)
   displ. norm   :     0.9338359 α      lambda       -0.4157996E-01
   maximum displ.:     0.3395019 α      in ANC's #38, #15, #18, ...

........................................................................
.............................. CYCLE   26 ..............................
........................................................................

 iter      E             dE          RMSdq      gap      omega  full diag
   1    -42.6375108 -0.426375E+02  0.109E+00    1.74       0.0  T
   2    -42.6458713 -0.836050E-02  0.651E-01    1.68       1.0  T
   3    -42.6472771 -0.140580E-02  0.403E-01    1.80       1.0  T
   4    -42.6469660  0.311068E-03  0.287E-01    1.62       1.0  T
   5    -42.6494417 -0.247572E-02  0.913E-02    1.76       1.0  T
   6    -42.6496918 -0.250041E-03  0.181E-02    1.72       1.1  T
   7    -42.6496965 -0.474660E-05  0.106E-02    1.72       1.9  T
   8    -42.6496979 -0.138580E-05  0.454E-03    1.72       4.4  T
   9    -42.6496981 -0.206893E-06  0.175E-03    1.73      11.4  T
  10    -42.6496981 -0.191186E-07  0.784E-04    1.73      25.5  T
  11    -42.6496981 -0.785506E-08  0.228E-04    1.73      87.7  T
     SCC iter.                  ...        0 min,  0.015 sec
     gradient                   ...        0 min,  0.011 sec
 * total energy  :   -72.1426582 Eh     change       -0.1413252E-01 Eh
   gradient norm :     0.9590051 Eh/α   predicted    -0.3891990E-01 ( 175.39%)
   displ. norm   :     0.3490224 α      lambda       -0.2127190E-01
   maximum displ.:     0.2101184 α      in ANC's #1, #11, #23, ...

........................................................................
.............................. CYCLE   27 ..............................
........................................................................

 iter      E             dE          RMSdq      gap      omega  full diag
   1    -42.6488679 -0.426489E+02  0.355E-01    1.70       0.0  T
   2    -42.6493159 -0.447934E-03  0.210E-01    1.73       1.0  T
   3    -42.6490790  0.236869E-03  0.155E-01    1.68       1.0  T
   4    -42.6494197 -0.340738E-03  0.801E-02    1.74       1.0  T
   5    -42.6496356 -0.215887E-03  0.198E-02    1.71       1.0  T
   6    -42.6496470 -0.113489E-04  0.453E-03    1.71       4.4  T
   7    -42.6496472 -0.238081E-06  0.250E-03    1.71       8.0  T
   8    -42.6496472 -0.376546E-07  0.838E-04    1.71      23.9  T
   9    -42.6496472 -0.568394E-08  0.338E-04    1.71      59.1  T
     SCC iter.                  ...        0 min,  0.013 sec
     gradient                   ...        0 min,  0.011 sec
 * total energy  :   -72.1544189 Eh     change       -0.1176067E-01 Eh
   gradient norm :     0.9778773 Eh/α   predicted    -0.1193162E-01 (   1.45%)
   displ. norm   :     0.5426929 α      lambda       -0.1398474E-01
   maximum displ.:     0.2277759 α      in ANC's #11, #1, #12, ...

........................................................................
.............................. CYCLE   28 ..............................
........................................................................

 iter      E             dE          RMSdq      gap      omega  full diag
   1    -42.6570106 -0.426570E+02  0.475E-01    1.70       0.0  T
   2    -42.6571499 -0.139255E-03  0.279E-01    1.71       1.0  T
   3    -42.6566411  0.508836E-03  0.136E-01    1.67       1.0  T
   4    -42.6571244 -0.483364E-03  0.540E-02    1.72       1.0  T
   5    -42.6572364 -0.112005E-03  0.109E-02    1.70       1.8  T
   6    -42.6572376 -0.122866E-05  0.598E-03    1.70       3.3  T
   7    -42.6572380 -0.334370E-06  0.240E-03    1.70       8.3  T
   8    -42.6572381 -0.820274E-07  0.699E-04    1.70      28.6  T
   9    -42.6572381 -0.166082E-08  0.310E-04    1.70      64.6  T
     SCC iter.                  ...        0 min,  0.013 sec
     gradient                   ...        0 min,  0.011 sec
 * total energy  :   -72.1553970 Eh     change       -0.9780975E-03 Eh
   gradient norm :     0.4550976 Eh/α   predicted    -0.9051753E-02 ( 825.44%)
   displ. norm   :     0.6090723 α      lambda       -0.2692197E-01
   maximum displ.:     0.2285876 α      in ANC's #15, #11, #6, ...

........................................................................
.............................. CYCLE   29 ..............................
........................................................................

 iter      E             dE          RMSdq      gap      omega  full diag
   1    -42.6722254 -0.426722E+02  0.432E-01    1.75       0.0  T
   2    -42.6726769 -0.451519E-03  0.262E-01    1.77       1.0  T
   3    -42.6724813  0.195576E-03  0.117E-01    1.74       1.0  T
   4    -42.6727456 -0.264274E-03  0.430E-02    1.77       1.0  T
   5    -42.6727879 -0.423314E-04  0.134E-02    1.76       1.5  T
   6    -42.6727911 -0.318863E-05  0.817E-03    1.76       2.4  T
   7    -42.6727922 -0.103449E-05  0.393E-03    1.76       5.1  T
   8    -42.6727924 -0.277899E-06  0.125E-03    1.76      16.0  T
   9    -42.6727924 -0.117667E-07  0.573E-04    1.76      34.9  T
  10    -42.6727924 -0.166040E-08  0.148E-04    1.76     135.0  T
     SCC iter.                  ...        0 min,  0.014 sec
     gradient                   ...        0 min,  0.011 sec
 * total energy  :   -72.1774775 Eh     change       -0.2208058E-01 Eh
   gradient norm :     0.6107789 Eh/α   predicted    -0.1845460E-01 ( -16.42%)
   displ. norm   :     0.5417592 α      lambda       -0.3523093E-01
   maximum displ.:     0.1842235 α      in ANC's #23, #15, #11, ...

........................................................................
.............................. CYCLE   30 ..............................
........................................................................

 iter      E             dE          RMSdq      gap      omega  full diag
   1    -42.6773199 -0.426773E+02  0.619E-01    1.76       0.0  T
   2    -42.6811191 -0.379927E-02  0.371E-01    1.74       1.0  T
   3    -42.6813807 -0.261610E-03  0.230E-01    1.80       1.0  T
   4    -42.6810515  0.329196E-03  0.168E-01    1.70       1.0  T
   5    -42.6818871 -0.835523E-03  0.601E-02    1.78       1.0  T
   6    -42.6819993 -0.112280E-03  0.131E-02    1.76       1.5  T
   7    -42.6820011 -0.175910E-05  0.700E-03    1.76       2.9  T
   8    -42.6820015 -0.376345E-06  0.285E-03    1.76       7.0  T
   9    -42.6820015 -0.434883E-07  0.146E-03    1.76      13.7  T
  10    -42.6820015 -0.127412E-07  0.316E-04    1.76      63.4  T
  11    -42.6820015 -0.149818E-08  0.125E-04    1.76     159.4  T
     SCC iter.                  ...        0 min,  0.016 sec
     gradient                   ...        0 min,  0.011 sec
 * total energy  :   -72.1913172 Eh     change       -0.1383968E-01 Eh
   gradient norm :     0.7268506 Eh/α   predicted    -0.2278566E-01 (  64.64%)
   displ. norm   :     0.4407234 α      lambda       -0.2543918E-01
   maximum displ.:     0.2127804 α      in ANC's #1, #3, #6, ...

........................................................................
.............................. CYCLE   31 ..............................
........................................................................

 iter      E             dE          RMSdq      gap      omega  full diag
   1    -42.6938272 -0.426938E+02  0.433E-01    1.73       0.0  T
   2    -42.6944060 -0.578891E-03  0.245E-01    1.76       1.0  T
   3    -42.6937499  0.656191E-03  0.174E-01    1.68       1.0  T
   4    -42.6943202 -0.570337E-03  0.911E-02    1.78       1.0  T
   5    -42.6945847 -0.264466E-03  0.156E-02    1.74       1.3  T
   6    -42.6945892 -0.453054E-05  0.461E-03    1.74       4.3  T
   7    -42.6945893 -0.671630E-07  0.266E-03    1.74       7.5  T
   8    -42.6945894 -0.106561E-06  0.794E-04    1.74      25.2  T
   9    -42.6945894 -0.504798E-08  0.416E-04    1.74      48.1  T
     SCC iter.                  ...        0 min,  0.013 sec
     gradient                   ...        0 min,  0.011 sec
 * total energy  :   -72.2048726 Eh     change       -0.1355541E-01 Eh
   gradient norm :     0.3408640 Eh/α   predicted    -0.1519022E-01 (  12.06%)
   displ. norm   :     0.2655685 α      lambda       -0.9230003E-02
   maximum displ.:     0.1794125 α      in ANC's #1, #11, #4, ...

........................................................................
.............................. CYCLE   32 ..............................
........................................................................

 iter      E             dE          RMSdq      gap      omega  full diag
   1    -42.7024394 -0.427024E+02  0.169E-01    1.74       0.0  T
   2    -42.7025611 -0.121639E-03  0.104E-01    1.74       1.0  T
   3    -42.7025642 -0.316069E-05  0.497E-02    1.74       1.0  T
   4    -42.7025611  0.315269E-05  0.206E-02    1.73       1.0  T
   5    -42.7025718 -0.107310E-04  0.618E-03    1.74       3.2  T
   6    -42.7025728 -0.959551E-06  0.325E-03    1.74       6.2  T
   7    -42.7025730 -0.229000E-06  0.126E-03    1.74      15.9  T
   8    -42.7025730 -0.229896E-07  0.329E-04    1.74      60.9  T
   9    -42.7025730 -0.642608E-09  0.150E-04    1.74     133.2  T
     SCC iter.                  ...        0 min,  0.013 sec
     gradient                   ...        0 min,  0.011 sec
 * total energy  :   -72.2111126 Eh     change       -0.6240013E-02 Eh
   gradient norm :     0.1439918 Eh/α   predicted    -0.4940481E-02 ( -20.83%)
   displ. norm   :     0.2647851 α      lambda       -0.6663788E-02
   maximum displ.:     0.0968919 α      in ANC's #9, #2, #12, ...

........................................................................
.............................. CYCLE   33 ..............................
........................................................................

 iter      E             dE          RMSdq      gap      omega  full diag
   1    -42.7060265 -0.427060E+02  0.203E-01    1.74       0.0  T
   2    -42.7063321 -0.305622E-03  0.120E-01    1.73       1.0  T
   3    -42.7063112  0.209001E-04  0.715E-02    1.76       1.0  T
   4    -42.7062440  0.672049E-04  0.631E-02    1.72       1.0  T
   5    -42.7063720 -0.127989E-03  0.941E-03    1.74       2.1  T
   6    -42.7063744 -0.239811E-05  0.307E-03    1.74       6.5  T
   7    -42.7063745 -0.855043E-07  0.162E-03    1.74      12.4  T
   8    -42.7063745 -0.157055E-07  0.701E-04    1.74      28.5  T
   9    -42.7063745 -0.670829E-08  0.243E-04    1.74      82.2  T
     SCC iter.                  ...        0 min,  0.013 sec
     gradient                   ...        0 min,  0.011 sec
 * total energy  :   -72.2149034 Eh     change       -0.3790744E-02 Eh
   gradient norm :     0.0708219 Eh/α   predicted    -0.3565495E-02 (  -5.94%)
   displ. norm   :     0.1610982 α      lambda       -0.1718780E-02
   maximum displ.:     0.0869242 α      in ANC's #2, #11, #1, ...

........................................................................
.............................. CYCLE   34 ..............................
........................................................................

 iter      E             dE          RMSdq      gap      omega  full diag
   1    -42.7064689 -0.427065E+02  0.855E-02    1.75       0.0  T
   2    -42.7064793 -0.103972E-04  0.519E-02    1.75       1.0  T
   3    -42.7064641  0.151628E-04  0.275E-02    1.74       1.0  T
   4    -42.7064732 -0.908923E-05  0.151E-02    1.76       1.3  T
   5    -42.7064827 -0.945690E-05  0.309E-03    1.75       6.5  T
   6    -42.7064828 -0.161481E-06  0.151E-03    1.75      13.2  T
   7    -42.7064828 -0.995776E-08  0.573E-04    1.75      34.9  T
   8    -42.7064829 -0.390280E-08  0.198E-04    1.75     101.2  T
     SCC iter.                  ...        0 min,  0.011 sec
     gradient                   ...        0 min,  0.011 sec
 * total energy  :   -72.2161210 Eh     change       -0.1217605E-02 Eh
   gradient norm :     0.1142828 Eh/α   predicted    -0.8817053E-03 ( -27.59%)
   displ. norm   :     0.3454199 α      lambda       -0.2821283E-02
   maximum displ.:     0.2105815 α      in ANC's #5, #2, #7, ...

........................................................................
.............................. CYCLE   35 ..............................
........................................................................

 iter      E             dE          RMSdq      gap      omega  full diag
   1    -42.6999822 -0.427000E+02  0.188E-01    1.77       0.0  T
   2    -42.7000122 -0.299932E-04  0.113E-01    1.80       1.0  T
   3    -42.6997267  0.285461E-03  0.106E-01    1.74       1.0  T
   4    -42.7000672 -0.340477E-03  0.233E-02    1.79       1.0  T
   5    -42.7000837 -0.165329E-04  0.586E-03    1.78       3.4  T
   6    -42.7000844 -0.702351E-06  0.227E-03    1.79       8.8  T
   7    -42.7000844 -0.869740E-08  0.106E-03    1.79      18.9  T
   8    -42.7000844 -0.840397E-08  0.491E-04    1.79      40.7  T
   9    -42.7000844 -0.425643E-08  0.156E-04    1.79     128.0  T
     SCC iter.                  ...        0 min,  0.013 sec
     gradient                   ...        0 min,  0.011 sec
 * total energy  :   -72.2171118 Eh     change       -0.9908407E-03 Eh
   gradient norm :     0.2939267 Eh/α   predicted    -0.1578953E-02 (  59.35%)
   displ. norm   :     0.4501119 α      lambda       -0.3934281E-02
   maximum displ.:     0.3066919 α      in ANC's #1, #2, #3, ...

........................................................................
.............................. CYCLE   36 ..............................
........................................................................

 iter      E             dE          RMSdq      gap      omega  full diag
   1    -42.7018031 -0.427018E+02  0.183E-01    1.81       0.0  T
   2    -42.7018760 -0.728588E-04  0.110E-01    1.80       1.0  T
   3    -42.7018706  0.542306E-05  0.383E-02    1.80       1.0  T
   4    -42.7018783 -0.771043E-05  0.132E-02    1.80       1.5  T
   5    -42.7018817 -0.337042E-05  0.576E-03    1.80       3.5  T
   6    -42.7018824 -0.742340E-06  0.333E-03    1.80       6.0  T
   7    -42.7018826 -0.186771E-06  0.145E-03    1.80      13.8  T
   8    -42.7018826 -0.267041E-07  0.498E-04    1.80      40.1  T
   9    -42.7018826 -0.509466E-08  0.180E-04    1.80     111.0  T
     SCC iter.                  ...        0 min,  0.013 sec
     gradient                   ...        0 min,  0.011 sec
 * total energy  :   -72.2187066 Eh     change       -0.1594737E-02 Eh
   gradient norm :     0.1098619 Eh/α   predicted    -0.2365688E-02 (  48.34%)
   displ. norm   :     0.1623115 α      lambda       -0.2155368E-02
   maximum displ.:     0.0915994 α      in ANC's #11, #1, #18, ...

........................................................................
.............................. CYCLE   37 ..............................
........................................................................

 iter      E             dE          RMSdq      gap      omega  full diag
   1    -42.7084227 -0.427084E+02  0.931E-02    1.79       0.0  T
   2    -42.7084461 -0.234299E-04  0.565E-02    1.79       1.0  T
   3    -42.7084394  0.664868E-05  0.263E-02    1.79       1.0  T
   4    -42.7084335  0.598350E-05  0.211E-02    1.80       1.0  T
   5    -42.7084499 -0.164525E-04  0.225E-03    1.79       8.9  T
   6    -42.7084500 -0.949672E-07  0.130E-03    1.79      15.4  T
   7    -42.7084500 -0.125525E-07  0.374E-04    1.79      53.5  T
   8    -42.7084500 -0.284542E-08  0.138E-04    1.79     145.2  T
     SCC iter.                  ...        0 min,  0.012 sec
     gradient                   ...        0 min,  0.011 sec
 * total energy  :   -72.2200641 Eh     change       -0.1357488E-02 Eh
   gradient norm :     0.0745021 Eh/α   predicted    -0.1106077E-02 ( -18.52%)
   displ. norm   :     0.3207838 α      lambda       -0.3064951E-02
   maximum displ.:     0.1535150 α      in ANC's #2, #3, #5, ...

........................................................................
.............................. CYCLE   38 ..............................
........................................................................

 iter      E             dE          RMSdq      gap      omega  full diag
   1    -42.7175595 -0.427176E+02  0.164E-01    1.79       0.0  T
   2    -42.7175960 -0.364071E-04  0.988E-02    1.79       1.0  T
   3    -42.7175666  0.293533E-04  0.380E-02    1.78       1.0  T
   4    -42.7175723 -0.565690E-05  0.280E-02    1.80       1.0  T
   5    -42.7176015 -0.292724E-04  0.333E-03    1.79       6.0  T
   6    -42.7176016 -0.879187E-07  0.217E-03    1.79       9.2  T
   7    -42.7176017 -0.432939E-07  0.726E-04    1.79      27.5  T
   8    -42.7176017 -0.603008E-08  0.301E-04    1.79      66.5  T
     SCC iter.                  ...        0 min,  0.011 sec
     gradient                   ...        0 min,  0.011 sec
 * total energy  :   -72.2210439 Eh     change       -0.9798783E-03 Eh
   gradient norm :     0.3364791 Eh/α   predicted    -0.1690197E-02 (  72.49%)
   displ. norm   :     0.1442510 α      lambda       -0.2316961E-02
   maximum displ.:     0.0813817 α      in ANC's #5, #2, #9, ...

........................................................................
.............................. CYCLE   39 ..............................
........................................................................

 iter      E             dE          RMSdq      gap      omega  full diag
   1    -42.7141970 -0.427142E+02  0.858E-02    1.78       0.0  T
   2    -42.7142279 -0.309058E-04  0.525E-02    1.79       1.0  T
   3    -42.7142277  0.198434E-06  0.267E-02    1.78       1.0  T
   4    -42.7142317 -0.401509E-05  0.118E-02    1.79       1.7  T
   5    -42.7142347 -0.294690E-05  0.363E-03    1.78       5.5  T
   6    -42.7142351 -0.394578E-06  0.171E-03    1.78      11.7  T
   7    -42.7142351 -0.513561E-07  0.695E-04    1.78      28.8  T
   8    -42.7142351 -0.850701E-08  0.192E-04    1.78     104.2  T
     SCC iter.                  ...        0 min,  0.011 sec
     gradient                   ...        0 min,  0.011 sec
 * total energy  :   -72.2223508 Eh     change       -0.1306899E-02 Eh
   gradient norm :     0.0826369 Eh/α   predicted    -0.1182597E-02 (  -9.51%)
   displ. norm   :     0.2786663 α      lambda       -0.1314710E-02
   maximum displ.:     0.1741267 α      in ANC's #2, #5, #1, ...

........................................................................
.............................. CYCLE   40 ..............................
........................................................................

 iter      E             dE          RMSdq      gap      omega  full diag
   1    -42.7105719 -0.427106E+02  0.983E-02    1.79       0.0  T
   2    -42.7105832 -0.112477E-04  0.590E-02    1.79       1.0  T
   3    -42.7105647  0.184837E-04  0.281E-02    1.78       1.0  T
   4    -42.7105789 -0.141977E-04  0.148E-02    1.80       1.4  T
   5    -42.7105873 -0.840204E-05  0.329E-03    1.79       6.1  T
   6    -42.7105875 -0.205591E-06  0.164E-03    1.79      12.2  T
   7    -42.7105875 -0.714456E-08  0.737E-04    1.79      27.1  T
   8    -42.7105875 -0.892690E-08  0.182E-04    1.79     109.7  T
     SCC iter.                  ...        0 min,  0.011 sec
     gradient                   ...        0 min,  0.011 sec
 * total energy  :   -72.2233511 Eh     change       -0.1000252E-02 Eh
   gradient norm :     0.0662117 Eh/α   predicted    -0.7084000E-03 ( -29.18%)
   displ. norm   :     0.4369505 α      lambda       -0.1803041E-02
   maximum displ.:     0.2250108 α      in ANC's #2, #1, #3, ...

........................................................................
.............................. CYCLE   41 ..............................
........................................................................

 iter      E             dE          RMSdq      gap      omega  full diag
   1    -42.7138453 -0.427138E+02  0.166E-01    1.78       0.0  T
   2    -42.7138554 -0.101261E-04  0.993E-02    1.78       1.0  T
   3    -42.7138148  0.406042E-04  0.344E-02    1.79       1.0  T
   4    -42.7138558 -0.409291E-04  0.119E-02    1.78       1.7  T
   5    -42.7138600 -0.424297E-05  0.558E-03    1.79       3.6  T
   6    -42.7138607 -0.731174E-06  0.226E-03    1.78       8.9  T
   7    -42.7138608 -0.235153E-07  0.770E-04    1.78      26.0  T
   8    -42.7138608 -0.828025E-08  0.282E-04    1.78      71.0  T
     SCC iter.                  ...        0 min,  0.011 sec
     gradient                   ...        0 min,  0.011 sec
 * total energy  :   -72.2243789 Eh     change       -0.1027796E-02 Eh
   gradient norm :     0.2209129 Eh/α   predicted    -0.1073637E-02 (   4.46%)
   displ. norm   :     0.2139790 α      lambda       -0.1480438E-02
   maximum displ.:     0.1210717 α      in ANC's #1, #3, #6, ...

........................................................................
.............................. CYCLE   42 ..............................
........................................................................

 iter      E             dE          RMSdq      gap      omega  full diag
   1    -42.7172165 -0.427172E+02  0.981E-02    1.78       0.0  T
   2    -42.7172344 -0.178905E-04  0.583E-02    1.77       1.0  T
   3    -42.7171880  0.463986E-04  0.420E-02    1.79       1.0  T
   4    -42.7172324 -0.444341E-04  0.169E-02    1.77       1.2  T
   5    -42.7172425 -0.100714E-04  0.260E-03    1.78       7.7  T
   6    -42.7172426 -0.128688E-06  0.115E-03    1.78      17.4  T
   7    -42.7172426 -0.512198E-08  0.518E-04    1.78      38.6  T
   8    -42.7172426 -0.267067E-08  0.177E-04    1.78     113.2  T
     SCC iter.                  ...        0 min,  0.012 sec
     gradient                   ...        0 min,  0.011 sec
 * total energy  :   -72.2249687 Eh     change       -0.5897786E-03 Eh
   gradient norm :     0.0316719 Eh/α   predicted    -0.7741130E-03 (  31.25%)
   displ. norm   :     0.3057396 α      lambda       -0.1199048E-02
   maximum displ.:     0.1711265 α      in ANC's #1, #5, #2, ...
 * RMSD in coord.:     0.6823001 α      energy gain  -0.1508095E+00 Eh

generating ANC from model Hessian ...
Using Lindh-Hessian (1995)
 Shifting diagonal of input Hessian by    7.5400983780736959E-003
 Lowest  eigenvalues of input Hessian
    0.000000    0.000000    0.000000    0.000000    0.000000    0.000000
    0.010000    0.011638    0.015246    0.017085    0.018664    0.020448
    0.022277    0.024390    0.026423    0.034167    0.042254    0.047913
 Highest eigenvalues
    2.145347    2.201541    2.260722    2.490136   21.709368   24.638969


........................................................................
.............................. CYCLE   43 ..............................
........................................................................

 iter      E             dE          RMSdq      gap      omega  full diag
   1    -42.7136457 -0.427136E+02  0.157E-01    1.78       0.0  T
   2    -42.7136484 -0.264253E-05  0.942E-02    1.79       1.0  T
   3    -42.7135191  0.129305E-03  0.601E-02    1.75       1.0  T
   4    -42.7136562 -0.137112E-03  0.760E-03    1.78       2.6  T
   5    -42.7136573 -0.108398E-05  0.350E-03    1.78       5.7  T
   6    -42.7136572  0.214275E-07  0.196E-03    1.78      10.2  T
   7    -42.7136573 -0.809608E-07  0.509E-04    1.78      39.3  T
   8    -42.7136573 -0.217982E-08  0.224E-04    1.78      89.3  T
     SCC iter.                  ...        0 min,  0.011 sec
     gradient                   ...        0 min,  0.011 sec
 * total energy  :   -72.2256060 Eh     change       -0.6373557E-03 Eh
   gradient norm :     0.0974544 Eh/α   predicted     0.0000000E+00 (-100.00%)
   displ. norm   :     0.1063391 α      lambda       -0.6124950E-02
   maximum displ.:     0.0550227 α      in ANC's #1, #61, #17, ...

........................................................................
.............................. CYCLE   44 ..............................
........................................................................

 iter      E             dE          RMSdq      gap      omega  full diag
   1    -42.7140090 -0.427140E+02  0.962E-02    1.78       0.0  T
   2    -42.7140118 -0.273808E-05  0.565E-02    1.79       1.0  T
   3    -42.7139230  0.888287E-04  0.537E-02    1.76       1.0  T
   4    -42.7140245 -0.101504E-03  0.975E-03    1.79       2.1  T
   5    -42.7140262 -0.172028E-05  0.306E-03    1.78       6.5  T
   6    -42.7140263 -0.128373E-06  0.157E-03    1.78      12.7  T
   7    -42.7140263 -0.109948E-07  0.627E-04    1.78      31.9  T
   8    -42.7140263 -0.534514E-08  0.186E-04    1.78     107.5  T
     SCC iter.                  ...        0 min,  0.011 sec
     gradient                   ...        0 min,  0.011 sec
 * total energy  :   -72.1124734 Eh     change        0.1131326E+00 Eh
   gradient norm :     4.3101270 Eh/α   predicted    -0.3097175E-02 (-102.74%)
   displ. norm   :     0.0577965 α      lambda       -0.2414933E+00
   maximum displ.:     0.0457642 α      in ANC's #61, #55, #60, ...

........................................................................
.............................. CYCLE   45 ..............................
........................................................................

 iter      E             dE          RMSdq      gap      omega  full diag
   1    -42.7157500 -0.427157E+02  0.811E-02    1.79       0.0  T
   2    -42.7157642 -0.142644E-04  0.441E-02    1.78       1.0  T
   3    -42.7157258  0.384157E-04  0.404E-02    1.80       1.0  T
   4    -42.7157732 -0.474462E-04  0.131E-02    1.78       1.5  T
   5    -42.7157771 -0.386648E-05  0.390E-03    1.79       5.1  T
   6    -42.7157773 -0.234556E-06  0.140E-03    1.79      14.3  T
   7    -42.7157774 -0.132446E-07  0.769E-04    1.79      26.0  T
   8    -42.7157774 -0.530041E-08  0.206E-04    1.79      97.0  T
     SCC iter.                  ...        0 min,  0.011 sec
     gradient                   ...        0 min,  0.011 sec
 * total energy  :   -72.2261047 Eh     change       -0.1136312E+00 Eh
   gradient norm :     0.0146334 Eh/α   predicted    -0.1211501E+00 (   6.62%)
   displ. norm   :     0.0982690 α      lambda       -0.2092652E-03
   maximum displ.:     0.0851421 α      in ANC's #1, #2, #6, ...

........................................................................
.............................. CYCLE   46 ..............................
........................................................................

 iter      E             dE          RMSdq      gap      omega  full diag
   1    -42.7160654 -0.427161E+02  0.435E-02    1.79       0.0  T
   2    -42.7160662 -0.845618E-06  0.257E-02    1.79       1.0  T
   3    -42.7160655  0.664377E-06  0.550E-03    1.79       3.6  T
   4    -42.7160660 -0.471915E-06  0.323E-03    1.79       6.2  T
   5    -42.7160664 -0.341604E-06  0.738E-04    1.79      27.1  T
   6    -42.7160664 -0.786321E-08  0.416E-04    1.79      48.1  T
     SCC iter.                  ...        0 min,  0.009 sec
     gradient                   ...        0 min,  0.011 sec
 * total energy  :   -72.2262870 Eh     change       -0.1823857E-03 Eh
   gradient norm :     0.0132493 Eh/α   predicted    -0.1056782E-03 ( -42.06%)
   displ. norm   :     0.2261589 α      lambda       -0.3970029E-03
   maximum displ.:     0.1887632 α      in ANC's #1, #2, #11, ...

........................................................................
.............................. CYCLE   47 ..............................
........................................................................

 iter      E             dE          RMSdq      gap      omega  full diag
   1    -42.7162682 -0.427163E+02  0.900E-02    1.80       0.0  T
   2    -42.7162718 -0.357263E-05  0.529E-02    1.80       1.0  T
   3    -42.7162703  0.148496E-05  0.964E-03    1.80       2.1  T
   4    -42.7162722 -0.190218E-05  0.329E-03    1.80       6.1  T
   5    -42.7162724 -0.202615E-06  0.151E-03    1.80      13.3  T
   6    -42.7162724 -0.100509E-07  0.104E-03    1.80      19.2  T
   7    -42.7162725 -0.254027E-07  0.325E-04    1.80      61.5  T
   8    -42.7162725 -0.261174E-08  0.115E-04    1.80     174.6  T
     SCC iter.                  ...        0 min,  0.011 sec
     gradient                   ...        0 min,  0.011 sec
 * total energy  :   -72.2265874 Eh     change       -0.3003378E-03 Eh
   gradient norm :     0.0147016 Eh/α   predicted    -0.2086881E-03 ( -30.52%)
   displ. norm   :     0.2493452 α      lambda       -0.2920837E-03
   maximum displ.:     0.2114298 α      in ANC's #1, #2, #11, ...

........................................................................
.............................. CYCLE   48 ..............................
........................................................................

 iter      E             dE          RMSdq      gap      omega  full diag
   1    -42.7160934 -0.427161E+02  0.831E-02    1.81       0.0  T
   2    -42.7160958 -0.232109E-05  0.488E-02    1.81       1.0  T
   3    -42.7160936  0.214592E-05  0.956E-03    1.81       2.1  T
   4    -42.7160957 -0.203311E-05  0.451E-03    1.80       4.4  T
   5    -42.7160963 -0.645546E-06  0.206E-03    1.81       9.7  T
   6    -42.7160964 -0.843626E-07  0.867E-04    1.81      23.1  T
   7    -42.7160964 -0.469350E-08  0.309E-04    1.81      64.7  T
     SCC iter.                  ...        0 min,  0.010 sec
     gradient                   ...        0 min,  0.011 sec
 * total energy  :   -72.2268112 Eh     change       -0.2237935E-03 Eh
   gradient norm :     0.0261069 Eh/α   predicted    -0.1551569E-03 ( -30.67%)
   displ. norm   :     0.2780868 α      lambda       -0.2910783E-03
   maximum displ.:     0.2392325 α      in ANC's #1, #2, #4, ...

........................................................................
.............................. CYCLE   49 ..............................
........................................................................

 iter      E             dE          RMSdq      gap      omega  full diag
   1    -42.7160081 -0.427160E+02  0.803E-02    1.81       0.0  T
   2    -42.7160097 -0.156979E-05  0.472E-02    1.81       1.0  T
   3    -42.7160053  0.441017E-05  0.117E-02    1.81       1.7  T
   4    -42.7160096 -0.432768E-05  0.491E-03    1.81       4.1  T
   5    -42.7160103 -0.755123E-06  0.207E-03    1.81       9.7  T
   6    -42.7160104 -0.564761E-07  0.861E-04    1.81      23.2  T
   7    -42.7160104 -0.539357E-08  0.317E-04    1.81      63.0  T
     SCC iter.                  ...        0 min,  0.010 sec
     gradient                   ...        0 min,  0.011 sec
 * total energy  :   -72.2270381 Eh     change       -0.2269194E-03 Eh
   gradient norm :     0.0434270 Eh/α   predicted    -0.1568260E-03 ( -30.89%)
   displ. norm   :     0.3282477 α      lambda       -0.3593690E-03
   maximum displ.:     0.2842343 α      in ANC's #1, #2, #4, ...

........................................................................
.............................. CYCLE   50 ..............................
........................................................................

 iter      E             dE          RMSdq      gap      omega  full diag
   1    -42.7161726 -0.427162E+02  0.874E-02    1.81       0.0  T
   2    -42.7161739 -0.135336E-05  0.515E-02    1.81       1.0  T
   3    -42.7161671  0.681685E-05  0.139E-02    1.81       1.4  T
   4    -42.7161745 -0.733580E-05  0.434E-03    1.81       4.6  T
   5    -42.7161748 -0.370286E-06  0.235E-03    1.81       8.5  T
   6    -42.7161749 -0.751489E-07  0.841E-04    1.81      23.8  T
   7    -42.7161749 -0.577395E-08  0.303E-04    1.81      66.0  T
     SCC iter.                  ...        0 min,  0.010 sec
     gradient                   ...        0 min,  0.011 sec
[...]
H            3.56320123405294       -1.77837359173182       -0.00906847677796
H           -2.14228644907609        2.54960175274754        1.12210002755241
H           -1.23654515969933        3.26175359730466       -0.92026425216161
H           -3.05192704143176        1.86579421564602       -0.25115573853467
H           -1.21775746697331       -3.20636020727495        0.96095395855039
H           -1.23494304438716       -3.19751887232454       -0.82637098766984
H           -2.60759220750293       -2.53180765968928        0.08521453361295
H            1.35039305164132       -3.04172355773543        0.03051832703440

 Bond Distances (Angstroems)
 ---------------------------
C1-N2=1.4355         C1-H15=1.0918        C1-H16=1.0897        C1-H17=1.0882        N2-C1=1.4355         N2-C3=1.3401         
N2-C6=1.3773         C3-N2=1.3401         C3-N4=1.3611         C3-H18=1.0704        N4-C3=1.3611         N4-C5=1.3593         
N4-H25=1.0099        C5-N4=1.3593         C5-C6=1.4053         C5-N13=1.3488        C6-N2=1.3773         C6-C5=1.4053         
C6-C7=1.3929         C7-C6=1.3929         C7-N9=1.3467         O8-C10=1.3786        O8-H20=0.4063        N9-C7=1.3467         
N9-C10=1.4791        N9-C11=1.3991        C10-O8=1.3786        C10-N9=1.4791        C10-H19=1.1038       C10-H21=1.1010       
C11-N9=1.3991        C11-O12=1.2042       C11-N13=1.4047       O12-C11=1.2042       N13-C5=1.3488        N13-C11=1.4047       
N13-C14=1.4489       C14-N13=1.4489       C14-H22=1.0908       C14-H23=1.0909       C14-H24=1.0894       H15-C1=1.0918        
H16-C1=1.0897        H17-C1=1.0882        H18-C3=1.0704        H19-C10=1.1038       H20-O8=0.4063        H21-C10=1.1010       
H22-C14=1.0908       H23-C14=1.0909       H24-C14=1.0894       H25-N4=1.0099        
 C  H  Rav=1.0906 sigma=0.0088  Rmin=1.0704  Rmax=1.1038     9
 C  C  Rav=1.3991 sigma=0.0062  Rmin=1.3929  Rmax=1.4053     2
 N  H  Rav=1.0099 sigma=0.0000  Rmin=1.0099  Rmax=1.0099     1
 N  C  Rav=1.3910 sigma=0.0445  Rmin=1.3401  Rmax=1.4791    11
 O  H  Rav=0.4063 sigma=0.0000  Rmin=0.4063  Rmax=0.4063     1
 O  C  Rav=1.2914 sigma=0.0872  Rmin=1.2042  Rmax=1.3786     2

 selected bond angles (degree)
 --------------------
H15-C1-N2=110.58               H16-C1-N2=110.47               H16-C1-H15=108.75              H17-C1-N2=108.31               
H17-C1-H15=108.98              H17-C1-H16=109.72              C3-N2-C1=126.86                C6-N2-C1=125.02                
C6-N2-C3=108.12                N4-C3-N2=109.79                H18-C3-N2=125.46               H18-C3-N4=124.74               
C5-N4-C3=107.89                H25-N4-C3=124.82               H25-N4-C5=127.28               C6-C5-N4=107.49                
N13-C5-N4=130.63               N13-C5-C6=121.89               C5-C6-N2=106.71                C7-C6-N2=131.97                
C7-C6-C5=121.32                N9-C7-C6=114.34                H20-O8-C10=128.42              C10-N9-C7=117.10               
C11-N9-C7=127.18               C11-N9-C10=115.71              N9-C10-O8=111.73               H19-C10-O8=110.73              
H19-C10-N9=107.53              H21-C10-O8=111.51              H21-C10-N9=107.16              H21-C10-H19=107.98             

 selected dihedral angles (degree)
 ---------------------------------
C3-N2-C1-H15=289.63           C3-N2-C1-H16= 50.07           C3-N2-C1-H17=170.27           C6-N2-C1-H15=108.40           
C6-N2-C1-H16=228.84           C6-N2-C1-H17=349.04           N4-C3-N2-C1=178.96            N4-C3-N2-C6=  0.02            
H18-C3-N2-C1=358.96           H18-C3-N2-C6=180.02           C5-N4-C3-N2=359.95            C5-N4-C3-H18=179.96           
H25-N4-C3-N2=179.29           H25-N4-C3-H18=359.30          C6-C5-N4-C3=  0.05            C6-C5-N4-H25=180.73           
N13-C5-N4-C3=180.42           N13-C5-N4-H25=  1.10          C5-C6-N2-C1=181.05            C5-C6-N2-C3=  0.00            
C7-C6-N2-C1=  1.36            C7-C6-N2-C3=180.32            N2-C6-C5-N4=359.97            N2-C6-C5-N13=179.63           
C7-C6-C5-N4=179.69            C7-C6-C5-N13=359.36           N9-C7-C6-N2=180.49            N9-C7-C6-C5=  0.84            
C10-N9-C7-C6=178.92           C11-N9-C7-C6=  0.33           N9-C10-O8-H20=351.95          H19-C10-O8-H20=111.79         
H21-C10-O8-H20=232.05         O8-C10-N9-C7= 37.94           O8-C10-N9-C11=216.70          H19-C10-N9-C7=276.24          
H19-C10-N9-C11= 95.00         H21-C10-N9-C7=160.37          H21-C10-N9-C11=339.12         
           -------------------------------------------------
          |                Final Singlepoint                |
           -------------------------------------------------

          ...................................................
          :                      SETUP                      :
          :.................................................:
          :  # basis functions                  67          :
          :  # atomic orbitals                  67          :
          :  # shells                           39          :
          :  # electrons                        74          :
          :  max. iterations                   250          :
          :  Hamiltonian                  GFN2-xTB          :
          :  restarted?                      false          :
          :  GBSA solvation                  false          :
          :  PC potential                    false          :
          :  electronic temp.         7500.0000000     K    :
          :  accuracy                    1.0000000          :
          :  -> integral cutoff          0.2500000E+02      :
          :  -> integral neglect         0.1000000E-07      :
          :  -> SCF convergence          0.1000000E-05 Eh   :
          :  -> wf. convergence          0.1000000E-03 e    :
          :  Broyden damping             0.4000000          :
          ...................................................

 iter      E             dE          RMSdq      gap      omega  full diag
   1    -42.7175497 -0.427175E+02  0.523E-05    1.81       0.0  T
   2    -42.7175497 -0.141611E-10  0.392E-05    1.81     510.4  T
   3    -42.7175497 -0.367066E-10  0.183E-05    1.81    1092.5  T

   *** convergence criteria satisfied after 3 iterations ***

         #    Occupation            Energy/Eh            Energy/eV
      -------------------------------------------------------------
         1        2.0000           -0.8958735             -24.3780
       ...           ...                  ...                  ...
        31        1.9948           -0.6139197             -16.7056
        32        1.9918           -0.6032307             -16.4147
        33        1.9897           -0.5976937             -16.2641
        34        1.9806           -0.5825223             -15.8512
        35        1.9428           -0.5563777             -15.1398
        36        1.9079           -0.5446431             -14.8205
        37        1.6431           -0.5089219             -13.8485 (HOMO)
        38        0.4367           -0.4423671             -12.0374 (LUMO)
        39        0.0958           -0.4016559             -10.9296
        40        0.0286           -0.3721202             -10.1259
        41        0.0007           -0.2846580              -7.7459
        42        0.0000           -0.2030221              -5.5245
       ...           ...                  ...                  ...
        67                          5.2497694             142.8535
      -------------------------------------------------------------
                  HL-Gap            0.0665548 Eh            1.8110 eV
             Fermi-level           -0.4726549 Eh          -12.8616 eV

 SCC (total)                   0 d,  0 h,  0 min,  0.021 sec
 SCC setup                      ...        0 min,  0.000 sec (  0.853%)
 Dispersion                     ...        0 min,  0.000 sec (  0.852%)
 classical contributions        ...        0 min,  0.000 sec (  0.323%)
 integral evaluation            ...        0 min,  0.004 sec ( 20.921%)
 iterations                     ...        0 min,  0.005 sec ( 21.861%)
 molecular gradient             ...        0 min,  0.011 sec ( 54.587%)
 printout                       ...        0 min,  0.000 sec (  0.542%)

         :::::::::::::::::::::::::::::::::::::::::::::::::::::
         ::                     SUMMARY                     ::
         :::::::::::::::::::::::::::::::::::::::::::::::::::::
         :: total energy             -72.227773020787 Eh    ::
         :: gradient norm              0.003440328381 Eh/a0 ::
         :: HOMO-LUMO gap              1.811047608041 eV    ::
         ::.................................................::
         :: SCC energy               -42.717549654728 Eh    ::
         :: -> isotropic ES            0.121730252021 Eh    ::
         :: -> anisotropic ES         -0.003740398601 Eh    ::
         :: -> anisotropic XC          0.010797196471 Eh    ::
         :: -> dispersion             -0.022116086400 Eh    ::
         :: repulsion energy           2.392524932260 Eh    ::
         :: add. restraining         -31.902851359322 Eh    ::
         :: total charge               1.000000000000 e     ::
         :::::::::::::::::::::::::::::::::::::::::::::::::::::

           -------------------------------------------------
          |                Property Printout                |
           -------------------------------------------------

    * Orbital Energies and Occupations

         #    Occupation            Energy/Eh            Energy/eV
      -------------------------------------------------------------
         1        2.0000           -0.8958735             -24.3780
       ...           ...                  ...                  ...
        25        1.9995           -0.6694401             -18.2164
        26        1.9993           -0.6600355             -17.9605
        27        1.9990           -0.6521754             -17.7466
        28        1.9974           -0.6304041             -17.1542
        29        1.9972           -0.6288728             -17.1125
        30        1.9967           -0.6245028             -16.9936
        31        1.9948           -0.6139197             -16.7056
        32        1.9918           -0.6032307             -16.4147
        33        1.9897           -0.5976937             -16.2641
        34        1.9806           -0.5825223             -15.8512
        35        1.9428           -0.5563777             -15.1398
        36        1.9079           -0.5446431             -14.8205
        37        1.6431           -0.5089219             -13.8485 (HOMO)
        38        0.4367           -0.4423671             -12.0374 (LUMO)
        39        0.0958           -0.4016559             -10.9296
        40        0.0286           -0.3721202             -10.1259
        41        0.0007           -0.2846580              -7.7459
        42        0.0000           -0.2030221              -5.5245
        43        0.0000           -0.1875005              -5.1021
        44        0.0000           -0.1370611              -3.7296
        45        0.0000           -0.1243334              -3.3833
        46                         -0.0686042              -1.8668
        47                         -0.0441368              -1.2010
        48                         -0.0298047              -0.8110
       ...                                ...                  ...
        67                          5.2497694             142.8535
      -------------------------------------------------------------
                  HL-Gap            0.0665548 Eh            1.8110 eV
             Fermi-level           -0.4726549 Eh          -12.8616 eV

     #   Z          covCN         q      C6AA      α(0)
     1   6 C        3.691    -0.086    22.330     6.762
     2   7 N        2.820     0.055    20.275     6.688
     3   6 C        3.036     0.041    27.051     8.531
     4   7 N        2.774    -0.065    22.503     7.045
     5   6 C        3.039     0.105    25.643     8.306
     6   6 C        3.101     0.026    27.302     8.562
     7   6 C        1.922    -0.108    34.097     9.430
     8   8 O        1.662    -0.403    20.911     6.173
     9   7 N        2.754    -0.042    22.054     6.975
    10   6 C        3.665     0.124    18.809     6.220
    11   6 C        2.722     0.307    21.785     7.641
    12   8 O        0.859    -0.369    21.071     6.154
    13   7 N        2.737    -0.044    22.086     6.980
    14   6 C        3.697    -0.070    22.009     6.711
    15   1 H        0.924     0.104     1.750     2.069
    16   1 H        0.925     0.102     1.771     2.081
    17   1 H        0.925     0.117     1.638     2.001
    18   1 H        0.926     0.113     1.674     2.023
    19   1 H        0.923     0.098     1.804     2.100
    20   1 H        0.847     0.366     0.546     1.158
    21   1 H        0.923     0.116     1.650     2.009
    22   1 H        0.924     0.084     1.934     2.175
    23   1 H        0.924     0.084     1.939     2.178
    24   1 H        0.925     0.125     1.570     1.959
    25   1 H        0.860     0.220     1.008     1.572

 Mol. C6AA /au·bohr⁶  :       6563.063359
 Mol. C8AA /au·bohr⁸  :     151393.101287
 Mol. α(0) /au        :        123.504291


Wiberg/Mayer (AO) data.
largest (>0.10) Wiberg bond orders for each atom

 ---------------------------------------------------------------------------
     #   Z sym  total        # sym  WBO       # sym  WBO       # sym  WBO
 ---------------------------------------------------------------------------
     1   6 C    3.923 --     2 N    0.993    17 H    0.969    16 H    0.964
                            15 H    0.956
     2   7 N    3.582 --     3 C    1.334     6 C    1.130     1 C    0.993
     3   6 C    3.704 --     2 N    1.334     4 N    1.238    18 H    0.956
     4   7 N    3.546 --     3 C    1.238     5 C    1.200    25 H    0.921
     5   6 C    3.820 --     6 C    1.248    13 N    1.203     4 N    1.200
     6   6 C    3.865 --     7 C    1.275     5 C    1.248     2 N    1.130
     7   6 C    2.705 --     9 N    1.286     6 C    1.275
     8   8 O    1.992 --    10 C    1.053    20 H    0.859
     9   7 N    3.522 --     7 C    1.286    11 C    1.076    10 C    0.933
                            12 O    0.113
    10   6 C    3.886 --     8 O    1.053     9 N    0.933    21 H    0.932
                            19 H    0.928
    11   6 C    3.903 --    12 O    1.674     9 N    1.076    13 N    1.062
    12   8 O    1.990 --    11 C    1.674    13 N    0.120     9 N    0.113
    13   7 N    3.508 --     5 C    1.203    11 C    1.062    14 C    0.976
                            12 O    0.120
    14   6 C    3.917 --    13 N    0.976    23 H    0.967    22 H    0.967
                            24 H    0.963
    15   1 H    0.979 --     1 C    0.956
    16   1 H    0.983 --     1 C    0.964
    17   1 H    0.984 --     1 C    0.969
    18   1 H    0.986 --     3 C    0.956
    19   1 H    0.962 --    10 C    0.928
    20   1 H    0.865 --     8 O    0.859
    21   1 H    0.965 --    10 C    0.932
    22   1 H    0.985 --    14 C    0.967
    23   1 H    0.986 --    14 C    0.967
    24   1 H    0.982 --    14 C    0.963
    25   1 H    0.950 --     4 N    0.921
 ---------------------------------------------------------------------------

Topologies differ in total number of bonds
Writing topology from bond orders to xtbtopo.mol

molecular dipole:
                 x           y           z       tot (Debye)
 q only:        2.501      -1.270       0.067
   full:        2.845      -2.028       0.038       8.882
molecular quadrupole (traceless):
                xx          xy          yy          xz          yz          zz
 q only:        8.359      -3.728      10.346      -0.713       0.178     -18.705
  q+dip:        5.675      -5.689       9.835      -0.224       0.700     -15.509
   full:        4.767      -5.036       9.340      -0.491       0.299     -14.107

           -------------------------------------------------
          |                Geometry Summary                 |
           -------------------------------------------------

      molecular mass/u    :      195.1988581
   center of mass at/Å    :       -0.1091186       0.0201533      -0.0172085
  moments of inertia/u·Å² :        0.5124220E+03   0.7966218E+03   0.1286591E+04
rotational constants/cm⁻¹ :        0.3289795E-01   0.2116140E-01   0.1310256E-01

 * 25 selected distances

     #   Z          #   Z                                           value/Å
     1   6 C        2   7 N                                       1.4355182
     2   7 N        3   6 C                                       1.3400509
     3   6 C        4   7 N                                       1.3610860
     4   7 N        5   6 C                                       1.3592630
     2   7 N        6   6 C                                       1.3772687
     5   6 C        6   6 C                                       1.4053306
     7   6 C        9   7 N                                       1.3466634
     8   8 O       10   6 C                                       1.3786047
     9   7 N       10   6 C                                       1.4790711 (max)
     9   7 N       11   6 C                                       1.3991405
    11   6 C       12   8 O                                       1.2041970
     5   6 C       13   7 N                                       1.3488476
    11   6 C       13   7 N                                       1.4047300
    13   7 N       14   6 C                                       1.4488576
     1   6 C       15   1 H                                       1.0917503
     1   6 C       16   1 H                                       1.0896528
     1   6 C       17   1 H                                       1.0881530
     3   6 C       18   1 H                                       1.0703928
    10   6 C       19   1 H                                       1.1037678
     8   8 O       20   1 H                                       0.4063429 (min)
    10   6 C       21   1 H                                       1.1010127
    14   6 C       22   1 H                                       1.0908075
    14   6 C       23   1 H                                       1.0909421
    14   6 C       24   1 H                                       1.0893639
     4   7 N       25   1 H                                       1.0099313

 * 6 distinct bonds (by element types)

   Z      Z             #   av. dist./Å        max./Å        min./Å
   1 H    6 C           9     1.0906492     1.1037678     1.0703928
   6 C    6 C           1     1.4053306     1.4053306     1.4053306
   1 H    7 N           1     1.0099313     1.0099313     1.0099313
   6 C    7 N          11     1.3909543     1.4790711     1.3400509
   1 H    8 O           1     0.4063429     0.4063429     0.4063429
   6 C    8 O           2     1.2914008     1.3786047     1.2041970


optimized geometry written to: xtbopt.xyz


           -------------------------------------------------
          | TOTAL ENERGY              -72.227773020787 Eh   |
          | GRADIENT NORM               0.003440328381 Eh/α |
          | HOMO-LUMO GAP               1.811047608041 eV   |
           -------------------------------------------------

------------------------------------------------------------------------
 * finished run on 2024/06/05 at 19:59:01.568     
------------------------------------------------------------------------
 total:
 * wall-time:     0 d,  0 h,  0 min,  1.822 sec
 *  cpu-time:     0 d,  0 h,  0 min,  1.804 sec
 * ratio c/w:     0.990 speedup
 SCF:
 * wall-time:     0 d,  0 h,  0 min,  0.036 sec
 *  cpu-time:     0 d,  0 h,  0 min,  0.036 sec
 * ratio c/w:     1.000 speedup
 ANC optimizer:
 * wall-time:     0 d,  0 h,  0 min,  1.760 sec
 *  cpu-time:     0 d,  0 h,  0 min,  1.757 sec
 * ratio c/w:     0.998 speedup

