25
 energy: -43.830099173380 gnorm: 0.113163340825 xtb: 6.6.1 (8d0f1dd)
C            3.24219231832741        1.24157944790192        0.07580255212108
N            2.34859609764266        0.16752075500303       -0.00933907269322
C            2.62497957494472       -1.21919933850237        0.04808690409123
N            1.42885735512518       -1.96761176324259        0.01694124826244
C            0.39192368274962       -1.09628903700904       -0.00291457899302
C            0.93769905130179        0.16195187288696        0.01075481505832
C            0.11412537920460        1.36619408687311        0.00336933431620
O            0.53803795941082        2.50858522091786        0.01415646013527
N           -1.24517033270956        1.03129584707112       -0.02693956108807
C           -2.19312071339327        2.14159608683686       -0.04775583078825
C           -1.82263460016332       -0.21729495401471       -0.04796638919699
O           -3.01975835047533       -0.38317254465572       -0.07628420503486
N           -0.94335383763828       -1.32559674072100       -0.03594128808654
C           -1.50669431382786       -2.65610187020919       -0.06446834669155
H            3.70058557485833        1.28664814086528        1.07000720386292
H            4.00458153789407        1.11445995573724       -0.70574126417025
H            2.72235585600044        2.18775017753843       -0.08663527248111
H            3.56585197849337       -1.62643390306141        0.09062367738129
H           -1.63079932172521        3.07148384293155       -0.02156266981138
H           -2.79488467298169        2.09353626532754       -0.95461889460474
H           -2.85004789063331        2.07548362456831        0.81695045695910
H           -1.21793317764262       -3.21692907631865        0.82622749097395
H           -1.19313159842873       -3.19115402767036       -0.96235615635348
H           -2.59116199938995       -2.54812156187876       -0.07919271396105
H            1.37683729611589       -2.97233831272117        0.01227915301484
25
 energy: -43.836024177837 gnorm: 0.046856987318 xtb: 6.6.1 (8d0f1dd)
C            3.23828419981046        1.22007087016701        0.07835838049297
N            2.32600432693054        0.13913496441571       -0.00744904453383
C            2.62524397448080       -1.22946875367565        0.04334150352509
N            1.43341490818252       -1.95351930103513        0.01863150093528
C            0.40067543291587       -1.07800097350804       -0.00269590610842
C            0.92901138623434        0.19184362866445        0.00646393008899
C            0.10948300811113        1.36976573567125       -0.00232260435245
O            0.51293104181235        2.52858894889832        0.01016469515456
N           -1.25546413505031        1.03294734012330       -0.02868237091061
C           -2.20136390546510        2.13976018743198       -0.04766962517765
C           -1.82059843707725       -0.21429498856985       -0.04863987040092
O           -3.01995957537187       -0.38919426642420       -0.07614329886951
N           -0.93897015186149       -1.31447495074639       -0.03449945316787
C           -1.49684624365781       -2.64835282876828       -0.06272699551457
H            3.71329783778938        1.27394550424622        1.06539724389665
H            4.01223857433325        1.11197686396347       -0.68964210461167
H            2.70665379044688        2.15839519947833       -0.08714876545155
H            3.59146635887323       -1.64979279262193        0.08357920372532
H           -1.62483309365571        3.06192815340910       -0.02152355347654
H           -2.80312243741566        2.09487660600866       -0.95471585384702
H           -2.85858967795381        2.07737122138737        0.81823350121066
H           -1.20796532649212       -3.21208400686063        0.82674872814727
H           -1.18192341942419       -3.18539708642954       -0.96008052147822
H           -2.58171187033970       -2.54068248413001       -0.07796970838673
H            1.38057628690405       -2.95750059664128        0.01447404133291
25
 energy: -43.836567746961 gnorm: 0.022521264298 xtb: 6.6.1 (8d0f1dd)
C            3.22934667550000        1.23294052484413        0.07022390550145
N            2.31350275910020        0.13052955760396       -0.00543871994832
C            2.61893617881580       -1.22518350035732        0.05014415362959
N            1.43833102719012       -1.95329804825398        0.01864152667623
C            0.40513656659032       -1.08487729669231       -0.00327167918080
C            0.92725950347173        0.19695296446765        0.00853652212147
C            0.12604993479831        1.35475660724879        0.00636227577076
O            0.53163674814159        2.51941786634268        0.02142315322668
N           -1.24877223778285        1.02770997932437       -0.02407247018363
C           -2.18677100113040        2.13864508426402       -0.04704071305686
C           -1.81312666970499       -0.21564133017140       -0.04745507140605
O           -3.01563766985536       -0.38502158078473       -0.07766320743709
N           -0.94155822231378       -1.32315672446918       -0.03546195018347
C           -1.51135115821918       -2.65541231113498       -0.06628832937475
H            3.70405690984819        1.29665813857700        1.05762677802183
H            4.00039403204811        1.12758841600679       -0.69972592531857
H            2.70254722939916        2.17608969862953       -0.09528441771013
H            3.59602639089917       -1.63835409990006        0.10139464561666
H           -1.61601402739006        3.06533971835411       -0.01989836681222
H           -2.78601315288502        2.09274961274928       -0.95521076411808
H           -2.84602693835588        2.07565597221982        0.81691260639103
H           -1.22915051648766       -3.22485515731045        0.82216694454692
H           -1.20385995725453       -3.19703397638687       -0.96428685823573
H           -2.59673393851339       -2.54442810356964       -0.08107571665827
H            1.38972438715016       -2.95992981714696        0.01222473034351
25
 energy: -43.837079450930 gnorm: 0.015027646285 xtb: 6.6.1 (8d0f1dd)
C            3.24402431553476        1.22861620145998        0.07815028479412
N            2.31793426018806        0.13179152469501       -0.00508992762335
C            2.61240154840705       -1.22402528489425        0.03933818833581
N            1.43231488783104       -1.95128451046288        0.01586977527473
C            0.40355004667276       -1.08260663129980       -0.00503948212208
C            0.92864335114385        0.20236800769764        0.00465425462883
C            0.12482357341971        1.35617176926786       -0.00151361120905
O            0.52635589816122        2.52395145970768        0.00823013392129
N           -1.25611918302460        1.03070682270296       -0.02867820024184
C           -2.19837130827281        2.13892342342693       -0.04892988283797
C           -1.81665729990504       -0.21291935337745       -0.04801034897941
O           -3.01924562842394       -0.38540845727022       -0.07501834476722
N           -0.94325085026587       -1.31990791882138       -0.03471145270557
C           -1.50225822286576       -2.65432001162249       -0.06155102974565
H            3.70943917289494        1.27338537582992        1.07050093728826
H            4.01165204664398        1.11123177920743       -0.69379042249239
H            2.72713133148584        2.17851117373690       -0.08006785688286
H            3.58427639016709       -1.63758729175641        0.08471838159044
H           -1.63493170830248        3.06988297542338       -0.02380732741624
H           -2.80319385596839        2.09197880078687       -0.95370144236223
H           -2.85527987992950        2.07467184259224        0.81696732251491
H           -1.21002056358110       -3.21474503691452        0.82936923032503
H           -1.18565283285475       -3.19147285184263       -0.95895707728656
H           -2.58788291353644       -2.55088221273610       -0.07622042183176
H            1.37825027744016       -2.95918940108245        0.01077137205291
25
 energy: -43.837253817504 gnorm: 0.010432100194 xtb: 6.6.1 (8d0f1dd)
C            3.24117429817825        1.22927691566067        0.07313165005970
N            2.32515263004485        0.13107493767572       -0.00309134097370
C            2.61854569077765       -1.22777403878377        0.04461085612596
N            1.43516537300407       -1.95391750419930        0.02289283342768
C            0.40491806028929       -1.08592264300688       -0.00084632243490
C            0.93118744388767        0.19757108903318        0.00881036902482
C            0.12164543084729        1.35741200836363        0.00227350823207
O            0.51754966407554        2.52598518062826        0.01387580912501
N           -1.25900819425477        1.02980212498945       -0.02677677747210
C           -2.19757107989883        2.13977256223400       -0.04671675432842
C           -1.81761046190152       -0.21411169918832       -0.04854404251719
O           -3.01891864264000       -0.39066060895863       -0.07812875252016
N           -0.94060664259237       -1.31923881927890       -0.03410300015146
C           -1.49964547179258       -2.65080197786453       -0.06570214672463
H            3.70594209159789        1.28196177905721        1.06423421714121
H            4.00681101288665        1.11176676263917       -0.69997362730568
H            2.70163871325301        2.16424394440256       -0.09310423866373
H            3.58597870767397       -1.64246058190408        0.08916169589716
H           -1.62092501656095        3.06229705905701       -0.01852174558650
H           -2.79899942238207        2.09891238571831       -0.95446150771810
H           -2.85682758694023        2.07962907493287        0.81818258264086
H           -1.21078937609588       -3.21354728869622        0.82446130536024
H           -1.18266341819058       -3.18375997239893       -0.96493834367319
H           -2.58374266017765       -2.53835769091925       -0.08218308495745
H            1.37953170997103       -2.96131080473897        0.01893991021463
25
 energy: -43.837363793905 gnorm: 0.006171117761 xtb: 6.6.1 (8d0f1dd)
C            3.24014591184209        1.23134460835167        0.07762779782944
N            2.32408741572493        0.13200441044195       -0.00408258070506
C            2.61991856207944       -1.22611347692534        0.04167566103809
N            1.43726634514215       -1.95201888973894        0.01400134502109
C            0.40477247058618       -1.08619592990342       -0.00588069440141
C            0.93028531673072        0.19819875276515        0.00525055806220
C            0.12449092939008        1.35773376486619        0.00019355127528
O            0.52109055490617        2.52600658415299        0.01296454883884
N           -1.25671658177774        1.03009511081375       -0.02781872162386
C           -2.19520414260671        2.13881476705975       -0.04885144591665
C           -1.81611157298854       -0.21298494479141       -0.04794959524161
O           -3.01769117723295       -0.38799194593415       -0.07477134730423
N           -0.94147604945949       -1.32031517114244       -0.03543670854545
C           -1.50528201310785       -2.65238674470739       -0.06169013745177
H            3.70760889621191        1.28101763981372        1.06709845120273
H            4.00829669067611        1.12010046713061       -0.69283044021519
H            2.70518872869360        2.16899428976768       -0.08468529351774
H            3.58938181115658       -1.64043797725195        0.09038613381523
H           -1.62222449699381        3.06380092231797       -0.02390926462350
H           -2.79689260608836        2.09195121474685       -0.95590330368311
H           -2.85251443009710        2.07667208686630        0.81716366191050
H           -1.21812228029209       -3.21655169461478        0.82810912704930
H           -1.19590197990087       -3.19295900789434       -0.95899624179096
H           -2.58990833279879       -2.54182072920886       -0.07461849374065
H            1.38344488326411       -2.95911591252733        0.00643648494063
25
 energy: -43.837351438264 gnorm: 0.006817953383 xtb: 6.6.1 (8d0f1dd)
C            3.24101560531399        1.23034309410351        0.07272311867670
N            2.32036693143543        0.13155921126776       -0.00435128194832
C            2.61601078522954       -1.22522847914530        0.04472986631506
N            1.43465749182933       -1.95070542531027        0.02153749944643
C            0.40276546214105       -1.08518435242980       -0.00228719482928
C            0.92772661886730        0.20013704045904        0.00734966422824
C            0.12605005906969        1.35737846003098        0.00226339809442
O            0.52444814342927        2.52521964978540        0.01407164489215
N           -1.25693816440853        1.03117076724691       -0.02652685387152
C           -2.19587156766684        2.13973725479691       -0.04668901730172
C           -1.81660979032710       -0.21137525553508       -0.04817621261721
O           -3.01848462986685       -0.38554844259605       -0.07759581199405
N           -0.94332621219213       -1.32003956239345       -0.03477089413812
C           -1.50366667002917       -2.65422184754397       -0.06574810564820
H            3.71047522766295        1.28125653819094        1.06131165034208
H            4.00794114647220        1.11344073165269       -0.69791489504257
H            2.71712741918119        2.17389502915157       -0.09080929625605
H            3.58699278236910       -1.63940491511693        0.09339411823175
H           -1.62835654866215        3.06807881305394       -0.01973054712172
H           -2.79791922692614        2.09335762042685       -0.95334332089219
H           -2.85370576644763        2.07449739661884        0.81846320243883
H           -1.21623823427669       -3.21960763643336        0.82340916461501
H           -1.18789406815948       -3.19181138366304       -0.96291796480365
H           -2.58918722702282       -2.55101006672993       -0.08265643044969
H            1.38055328604426       -2.95809204543393        0.01774755185574
25
 energy: -43.837437027507 gnorm: 0.002637617169 xtb: 6.6.1 (8d0f1dd)
C            3.23933614323344        1.23051920920270        0.07545699514729
N            2.32179126954179        0.13087367568377       -0.00404798853783
C            2.61699126986444       -1.22654896149546        0.04163854488586
N            1.43555399359821       -1.95262603352854        0.01891158382285
C            0.40392475847023       -1.08679992130928       -0.00293271701315
C            0.92872742065341        0.19828779787976        0.00703582403856
C            0.12559822575309        1.35610613114719        0.00155112662178
O            0.52280967488826        2.52411240924370        0.01269994025917
N           -1.25762877875987        1.02983644062869       -0.02718607666316
C           -2.19548886718474        2.13955631834235       -0.04811740294054
C           -1.81658112049870       -0.21279296191986       -0.04786267292397
O           -3.01818021021126       -0.38872293311329       -0.07657865491792
N           -0.94181804372646       -1.32021316185411       -0.03422930842330
C           -1.50228476163197       -2.65252252756606       -0.06348876571242
H            3.70489867470634        1.28112443289774        1.06613294491387
H            4.00648491968057        1.11550027100875       -0.69596537972707
H            2.70907925717123        2.17084085404093       -0.08758532683094
H            3.58692962017222       -1.64042893462922        0.08775989728577
H           -1.62379277339931        3.06522883772725       -0.02126226433557
H           -2.79763062768395        2.09600749616080       -0.95503581708512
H           -2.85420298168798        2.07808960088940        0.81680438187942
H           -1.21284499726365       -3.21539164480924        0.82665282602255
H           -1.18748418161610       -3.18856124425636       -0.96191202548164
H           -2.58712129812963       -2.54338741233990       -0.07840899335055
H            1.38086626712015       -2.96024554357749        0.01345238128820
25
 energy: -43.837430301471 gnorm: 0.003080728227 xtb: 6.6.1 (8d0f1dd)
C            3.24212463482019        1.23027955340357        0.07501485492892
N            2.32418036268535        0.13195241341142       -0.00369176402065
C            2.61859698343454       -1.22593063004290        0.04426662974755
N            1.43664839092299       -1.95166728965996        0.01783367489078
C            0.40453513408285       -1.08615635660866       -0.00429289612505
C            0.92983305868161        0.19897163579152        0.00638327170489
C            0.12500711405380        1.35773758118088        0.00067581061603
O            0.52004737308799        2.52632247030992        0.01320027534770
N           -1.25801490257451        1.02992707490409       -0.02757266359946
C           -2.19695639401573        2.13831040496100       -0.04733876380300
C           -1.81652850514161       -0.21268324426518       -0.04864014954746
O           -3.01797524010143       -0.38913551705556       -0.07628554134360
N           -0.94129008683264       -1.31988850865911       -0.03566080281644
C           -1.50387205051915       -2.65182316789632       -0.06401499566899
H            3.70970846411284        1.28096469197751        1.06473762177001
H            4.00898681972905        1.11507783887646       -0.69672638958563
H            2.70952031158730        2.16910031471418       -0.08856900068562
H            3.58778910170189       -1.64012034977345        0.09370556865070
H           -1.62511193467066        3.06391611633722       -0.02154432347653
H           -2.79964070866041        2.09300766336809       -0.95391296533430
H           -2.85440902471267        2.07586440342964        0.81863164802746
H           -1.21680471998971       -3.21568037299986        0.82613431300592
H           -1.19174239604919       -3.19025990851966       -0.96178969089050
H           -2.58851481736076       -2.54112105221934       -0.07873597261559
H            1.38181588478783       -2.95912357051126        0.01167530304500
25
 energy: -43.837448865443 gnorm: 0.001183219139 xtb: 6.6.1 (8d0f1dd)
C            3.24049329677998        1.23053555715220        0.07519722985882
N            2.32284175736923        0.13159749724822       -0.00403841379855
C            2.61768272305497       -1.22610795054039        0.04241716895552
N            1.43585447309460       -1.95172324469849        0.01861969462798
C            0.40369708960514       -1.08631115399585       -0.00334203287658
C            0.92892082926077        0.19884232104567        0.00692538575647
C            0.12563849198175        1.35747623649525        0.00166786495018
O            0.52156447046487        2.52574077144713        0.01356804373626
N           -1.25771351833694        1.03030986792176       -0.02702112244067
C           -2.19560163247917        2.13953321490599       -0.04796241078624
C           -1.81677642928952       -0.21208572276219       -0.04790520543682
O           -3.01834402159542       -0.38775272778235       -0.07632356457878
N           -0.94212699695116       -1.32010666500150       -0.03461696760565
C           -1.50323195291053       -2.65303339745923       -0.06372745197792
H            3.70799322590660        1.28091253711762        1.06489847983658
H            4.00768288354463        1.11624348728122       -0.69615569699830
H            2.70895373145035        2.17009264794212       -0.08774326977754
H            3.58735976668204       -1.64031767661451        0.08977108367244
H           -1.62393303780491        3.06532557130155       -0.02157123056076
H           -2.79723558469122        2.09439191429105       -0.95517938605999
H           -2.85392787320673        2.07723983114967        0.81727322010968
H           -1.21520725683053       -3.21727384104474        0.82590607599452
H           -1.18944925105142       -3.19078150349202       -0.96137761505191
H           -2.58822045979395       -2.54571712148129       -0.07891095938022
H            1.38101812880633       -2.95918825597265        0.01311413205362
25
 energy: -43.800013583299 gnorm: 0.210261564060 xtb: 6.6.1 (8d0f1dd)
C            3.24897646834393        1.31669172534812        0.06691455267813
N            2.39903362661099        0.25492214552028       -0.06683411673526
C            2.58053465723646       -1.23143845966135        0.05484245988395
N            1.42050174806207       -2.00037931250771        0.03505295823794
C            0.39212115134199       -1.13357969789109        0.00330961497966
C            0.94357871119313        0.11073987242988        0.00413472573059
C            0.13300179669013        1.32690137590859        0.01039081390989
O            0.57000200576562        2.46606615987804        0.03200754285852
N           -1.23942576750758        0.99993463609165       -0.02273824346999
C           -2.16691219205261        2.12851833188395       -0.04538962429153
C           -1.82450017217216       -0.23506249008239       -0.04886625134914
O           -3.03779068243603       -0.38828198344709       -0.08631492435529
N           -0.95978173561536       -1.34955799054267       -0.03437350925521
C           -1.54356266997281       -2.66577284395340       -0.06867173390256
H            3.68768711719137        1.35840977933894        1.07509879271709
H            4.00222980877527        1.19477828465003       -0.73758429408649
H            2.74767275919053        2.27728910735349       -0.08269227869108
H            3.55352653967768       -1.61229308689498        0.13663708369264
H           -1.59043538597055        3.04993415582332       -0.01742723700104
H           -2.76546351678216        2.09302704111117       -0.95563674212912
H           -2.82361139300541        2.07370407215131        0.81898290211820
H           -1.26526973664163       -3.23794488246433        0.81999110960518
H           -1.24074234311586       -3.20691269856287       -0.96791539268833
H           -2.62665989771357       -2.53901307193918       -0.08379012686857
H            1.38023802976803       -3.00088460421687        0.03975030062296
25
 energy: -43.823397398203 gnorm: 0.080599729809 xtb: 6.6.1 (8d0f1dd)
C            3.23388828765120        1.26871948234219        0.06777188493819
N            2.34994915824232        0.18082985784799       -0.06192034118810
C            2.61367090148490       -1.23380434885810        0.04925308824834
N            1.43883810574897       -1.97092578544635        0.03693411639209
C            0.40037832735533       -1.10298773516324        0.00353736124626
C            0.92690551596396        0.16279871904965       -0.00175699609502
C            0.11815342695264        1.34051998410113        0.00310349321770
O            0.53167660559853        2.49030714093736        0.02840811544224
N           -1.25195911727041        1.01146835872257       -0.02415072986905
C           -2.17926123782257        2.13168026833915       -0.04515354708027
C           -1.82110247753202       -0.22972871795960       -0.05024710998719
O           -3.02498287476858       -0.39387582004409       -0.08535846048199
N           -0.95161446280929       -1.33350383230103       -0.03232225913622
C           -1.53049514659623       -2.65816313944618       -0.06649081785253
H            3.70025157129176        1.33458619570039        1.06301668604880
H            4.01156161369387        1.18684355384441       -0.70838516992006
H            2.72254091312306        2.22486111906298       -0.08768036756261
H            3.59092986647709       -1.63184947110898        0.12921061813273
H           -1.58813978016877        3.04472181961805       -0.01722700433408
H           -2.77577863170612        2.09526933937815       -0.95559609822718
H           -2.83569061103157        2.07717405578674        0.82054418363673
H           -1.25632867624872       -3.23425279706576        0.82051461445681
H           -1.22985288059523       -3.20149753759176       -0.96577441381546
H           -2.61462080901411       -2.53297482015568       -0.08235316992604
H            1.39603133884146       -2.97642032426517        0.04100070592702
25
 energy: -43.825647033634 gnorm: 0.027105088116 xtb: 6.6.1 (8d0f1dd)
C            3.22398887283498        1.28400332704617        0.06055430845219
N            2.32846886695655        0.15660836819667       -0.05109027886307
C            2.60885852256210       -1.21864567110767        0.05097509286323
N            1.43886192478437       -1.96834645660683        0.03429445876257
C            0.40089771047616       -1.10901112926098        0.00015265374927
C            0.93039980911168        0.17134561468014       -0.00150424731044
C            0.13861897849488        1.32384031426744        0.01122488397104
O            0.55782688723222        2.47823020102164        0.03818426551999
N           -1.23900611006263        1.00497911421228       -0.02020934703237
C           -2.15980557949803        2.12630539238367       -0.04512849836575
C           -1.81544631549312       -0.23348757272423       -0.04945309463253
O           -3.01917407071521       -0.38780113556893       -0.08711772396487
N           -0.95360927769190       -1.34350769462431       -0.03353009192173
C           -1.54481557415322       -2.66713651230455       -0.06935374649007
H            3.69345541676547        1.36257871174908        1.05430112455717
H            3.99366677112363        1.21020479119575       -0.72046634676196
H            2.71562219485408        2.24703675018817       -0.09071437707133
H            3.57976357244460       -1.61936291089902        0.14787663518874
H           -1.57250986565176        3.04209143922615       -0.01612238862501
H           -2.75555088658630        2.09017827754819       -0.95545245148948
H           -2.81822377678384        2.07216851758577        0.81893290783101
H           -1.27420146096348       -3.24474092471052        0.81717597610051
H           -1.24902561267207       -3.21182748177535       -0.96948882268240
H           -2.62947235771899       -2.53631889124184       -0.08450880931517
H            1.39536028721133       -2.97958887315208        0.03934629974158
25
 energy: -43.826061622148 gnorm: 0.022854536561 xtb: 6.6.1 (8d0f1dd)
C            3.24883962376773        1.28012323678961        0.06823210864988
N            2.33538184054109        0.15597580137308       -0.04626319959551
C            2.60364908162824       -1.21496926028910        0.03643099934399
N            1.43272419428021       -1.96541308926755        0.03331511185169
C            0.40136169245608       -1.10494413966460       -0.00084094696715
C            0.93606046458923        0.18073016535804       -0.00729425698460
C            0.13354382466705        1.32747142935820        0.00178721777578
O            0.54316034348228        2.49062060891632        0.02331757960368
N           -1.25078606130941        1.00844612452985       -0.02508088273726
C           -2.17936708590928        2.12595347625654       -0.04678394761110
C           -1.82202094716609       -0.23160959814419       -0.04957399960039
O           -3.02667313308490       -0.39248035916633       -0.08396647685231
N           -0.95210392070424       -1.33839638498577       -0.03145303868063
C           -1.53220563190111       -2.66431880121536       -0.06448022113240
H            3.70173149024491        1.33148401838754        1.06926315876101
H            4.01526082146146        1.18185507908381       -0.71189490940469
H            2.74896906641713        2.24774762418729       -0.07868320785550
H            3.56920058186789       -1.62723135540692        0.12651003301169
H           -1.60111323220264        3.04744821955179       -0.01958756432993
H           -2.78212878161965        2.09132568310758       -0.95333770320542
H           -2.83710447201319        2.07290327229314        0.81870707808750
H           -1.25142457818212       -3.23295646576813        0.82429419331494
H           -1.22583279310267       -3.20327961254417       -0.96408780859383
H           -2.61681507179406       -2.53897460246568       -0.08043751041194
H            1.38264161044755       -2.97771550495016        0.04078657577361
25
 energy: -43.826711419869 gnorm: 0.010771692877 xtb: 6.6.1 (8d0f1dd)
C            3.23938952906320        1.28612778051079        0.06118084886926
N            2.34163763447950        0.15932362090494       -0.04800716033016
C            2.61185249475485       -1.22134268691016        0.04425156035192
N            1.43978728533634       -1.97129386498357        0.03950073446578
C            0.40474661587548       -1.11204489286021        0.00381897072269
C            0.93766312761929        0.17174527299152       -0.00243539716021
C            0.13139539134633        1.32673327792570        0.00789352500070
O            0.53732935164312        2.49100597218110        0.03207674536761
N           -1.25208860900338        1.00737820471746       -0.02212579763452
C           -2.17326854625058        2.13012653538741       -0.04459131909732
C           -1.82100672090521       -0.23196699564077       -0.04989426486348
O           -3.02589302524695       -0.39573918641349       -0.08740810887662
N           -0.94898073257964       -1.33963155322882       -0.03102636869641
C           -1.53342606968224       -2.66201533921065       -0.06877920336363
H            3.69009335833328        1.34131943866339        1.06142373037324
H            4.00426207051775        1.18906584742638       -0.71967572467959
H            2.71137352752224        2.23520316139454       -0.09223494759226
H            3.58013681197339       -1.63340617437337        0.13703744510726
H           -1.58186106317263        3.04370944926528       -0.01465877108272
H           -2.77073498368264        2.10059765737025       -0.95524220161714