25
 energy: -42.312750846653 xtb: 6.6.1 (8d0f1dd)
C            3.33328902831728        1.86920065583720        0.08580947011744
N            2.95834112811485        0.80851644595229       -0.57708160009932
C            2.20684432752732       -1.18520068541158        0.14764503573421
N            1.31340336788033       -2.26523879597080        0.06425944804830
C            0.25430384896727       -1.40640217582695        0.00962067041208
C            1.03541629144339       -0.24045288132035        0.06244890059090
C            0.29737804945463        1.01334038194666        0.08128219613955
O            0.71711139098933        2.14863590194528        0.15242093031040
N           -1.13772753533065        0.82441311124485        0.02084250828234
C           -1.96167303868910        2.03862316839582       -0.02865993330436
C           -1.83689218072217       -0.33958240680724       -0.06308732793030
O           -3.04943639435158       -0.35463914763772       -0.14872400582924
N           -1.08738813812290       -1.51606078664266       -0.03235522950133
C           -1.81007056137760       -2.75859157926518       -0.09605210586683
H            3.62613909664618        1.82672100376427        1.15182997056365
H            3.97972953589047        1.69451404607263       -0.93939449848544
H            2.94793299142748        2.89272814137210       -0.08075262789282
H            3.25902072848281       -1.38569101844623        0.27941941238443
H           -1.29870766033522        2.89735333799641        0.01263876954126
H           -2.55214262446468        2.07726709394709       -0.94827259119925
H           -2.63975823837160        2.06305719175962        0.82330140561053
H           -1.59641065719659       -3.37817028067904        0.77647326992247
H           -1.57020948081528       -3.31351404100430       -1.00464069181300
H           -2.87053879879392       -2.49184586465906       -0.10955921286733
H            1.40887847440930       -3.26221730147167        0.11853418174693
