25
 energy: 0.000000000000 xtb: 6.6.1 (8d0f1dd)
C            3.23720163006194        1.16630919979326        0.08434469647475
N            2.29877817382611        0.07527477071623        0.03981603040599
C            2.58028210190900       -1.21425402444508        0.03006176031096
N            1.43813958087363       -1.93419271955128        0.00098261760884
C            0.39035688448383       -1.05887472636071       -0.00790371836672
C            0.93510056364412        0.21347819449412        0.01709077491437
C            0.09450143893243        1.40504303904423       -0.00410947031874
O            0.49712751527797        2.54126714362870       -0.00342325688240
N           -1.25076640035757        1.06271879480407       -0.03085478223738
C           -2.21907211982101        2.15522099834493       -0.05001256985998
C           -1.81739487048744       -0.20012725993278       -0.04692818574614
O           -2.99983886758376       -0.37846417018721       -0.07008878229737
N           -0.92618586207120       -1.30210215599479       -0.03682761578324
C           -1.46982264913417       -2.64643102187190       -0.06029820460571
H            3.71247264356769        1.21471455160235        1.06488849150277
H            4.00791497605742        1.03430808813993       -0.67357694370751
H            2.69910007168542        2.09770118228144       -0.09130154882931
H            3.56654120610678       -1.63682992603973        0.04233140067262
H           -1.67107961066214        3.09322851271934       -0.02552706933167
H           -2.82428953597071        2.09428624779827       -0.95318082946668
H           -2.87644029173232        2.07745725625962        0.81450067533302
H           -1.17061996399332       -3.19584890659852        0.83242232437030
H           -1.14560257411436       -3.17511610292205       -0.95688275822323
H           -2.55549792440841       -2.55659984320617       -0.07459039797972
H            1.38130855184625       -2.94313852034425       -0.01389874181052
25
 energy: -5.383527398013 xtb: 6.6.1 (8d0f1dd)
C            3.24699088168546        1.18071941775501        0.08506684057802
N            2.31089450474071        0.09811253766604        0.03834958454647
C            2.60333606372931       -1.22966132521639        0.03283403146125
N            1.43175888925668       -1.93872662270404        0.00434142907729
C            0.39852002466735       -1.05704138327605       -0.00766104982517
C            0.93254828653366        0.22288494467727        0.01578541305276
C            0.10376170557324        1.39594632373383       -0.00573795780275
O            0.49878916030867        2.56242161721362       -0.00627016196418
N           -1.25736003812598        1.04832046651810       -0.03000737459445
C           -2.22009817612393        2.14134823366540       -0.04846671028857
C           -1.81983383308381       -0.20290278118570       -0.04594028692646
O           -3.01595177564644       -0.38629618486816       -0.06703262611330
N           -0.93353639837440       -1.30353816981559       -0.03939447240390
C           -1.48368329597578       -2.64107335794644       -0.06451646650824
H            3.72654397504802        1.22860475159805        1.06645489601140
H            4.01503785159379        1.04531109380257       -0.67801340485373
H            2.70085166954262        2.10550598776847       -0.09155416945771
H            3.58222335798672       -1.65460723872467        0.04614841160741
H           -1.66123366405247        3.07393187415092       -0.02384570351582
H           -2.82481773590925        2.08512691231671       -0.95307469716142
H           -2.87696674904578        2.06802739973289        0.81755819465337
H           -1.18376400209409       -3.19212847117256        0.82802792204130
H           -1.15912313913310       -3.17719650096213       -0.95812562565415
H           -2.56919129912926       -2.54172928288833       -0.07975994432029
H            1.36651840396427       -2.94233163966679       -0.00813217549188
25
 energy: -6.110124552825 xtb: 6.6.1 (8d0f1dd)
C            3.26559736709127        1.20085674078684        0.08271394402978
N            2.33030314836389        0.11957434801319        0.03629474529052
C            2.62896196102348       -1.24146137122746        0.04312276112339
N            1.42916053639174       -1.93497440942874        0.01590195701390
C            0.41056289930027       -1.05395126623593       -0.00712361198427
C            0.93664311681310        0.23339143736132        0.01267081156970
C            0.11684244663599        1.38076219769794       -0.01153575618944
O            0.48589564329726        2.56991413742536       -0.01617669532033
N           -1.26252040773754        1.02606680108814       -0.02830542997125
C           -2.22114898657133        2.11407483625402       -0.04301064634604
C           -1.81596653916089       -0.21155330966863       -0.04394402313427
O           -3.01880197710295       -0.40308830826408       -0.05747596774514
N           -0.93663601591457       -1.30538099081932       -0.04663482666268
C           -1.51396691776709       -2.62862177780304       -0.07630238161515
H            3.75965277013132        1.26159010550680        1.05979793409098
H            4.03163762041876        1.07554374191526       -0.68737310218130
H            2.71173657965351        2.12185919609820       -0.09173841715651
H            3.60094597801200       -1.67461592944106        0.06060410070424
H           -1.64414713310838        3.03562516066114       -0.01788353870750
H           -2.82622143758858        2.06051507398436       -0.94831645610155
H           -2.87622132887479        2.04137786220573        0.82519511459104
H           -1.23132554288978       -3.18732692146337        0.81747906666198
H           -1.20256831632997       -3.18040260542267       -0.96632863204726
H           -2.59848313022205       -2.49508651544844       -0.09629030457730
H            1.35228233407154       -2.93565963160355        0.01169325081173
25
 energy: 0.543785718632 xtb: 6.6.1 (8d0f1dd)
C            3.30361449932837        1.24145754392830        0.07066967095978
N            2.37099506873875        0.15306871463395        0.03478543799206
C            2.67526014867630       -1.25528134461282        0.07451267665402
N            1.43793509073890       -1.92541912185255        0.05002831309304
C            0.43664913533142       -1.05222038369399       -0.00480675225573
C            0.95365492710273        0.24809298009691        0.00534921007270
C            0.14021241869825        1.35684787300962       -0.02868103449068
O            0.45503159934432        2.57770586801352       -0.04497888354229
N           -1.26559175868327        0.98416330100338       -0.02473743690117
C           -2.22264382534201        2.05686830732353       -0.02654594812935
C           -1.80196286148021       -0.23443530124716       -0.03857277924587
O           -3.01262046905719       -0.44041759356369       -0.03221837734008
N           -0.93196241117789       -1.31451717687577       -0.06508837826831
C           -1.58379306563901       -2.60360396050859       -0.10910375829030
H            3.83293027895289        1.33385332199994        1.03378172149683
H            4.06408280055426        1.14367853175006       -0.71477807597582
H            2.73755578212468        2.15820926121519       -0.09616073155535
H            3.63657057546405       -1.70557502489350        0.10584644708122
H           -1.61662759805623        2.95925385485095       -0.00017769302043
H           -2.83118250120741        2.00281465738592       -0.93032758660005
H           -2.87099704494753        1.97572182770669        0.84693918629075
H           -1.36038914513229       -3.18400533669422        0.78947209178766
H           -1.31177941186899       -3.18779869935949       -0.99391412559682
H           -2.66393732672797       -2.37652390012580       -0.14503927045475
H            1.34120976220132       -2.92290959731835        0.07077997238628
25
 energy: 9.957652676951 xtb: 6.6.1 (8d0f1dd)
C            3.33268582979817        1.27571163675337        0.05284413811317
N            2.40525916357841        0.17577389386922        0.03806232090359
C            2.71444414330976       -1.25899236651485        0.10980246301902
N            1.46007884147369       -1.92142103145557        0.08970673672145
C            0.46083016420718       -1.05725364387763       -0.00158360873077
C            0.97404613388123        0.25238949693226       -0.00094884728025
C            0.15794868712423        1.34441653370861       -0.04869168387271
O            0.44026708578744        2.58100044212148       -0.07704875729562
N           -1.25911553830519        0.95536409490539       -0.02247866389708
C           -2.22465033756094        2.01005848165919       -0.00709489242726
C           -1.78545312041659       -0.25427098997455       -0.03199718979820
O           -3.00168089390887       -0.46365835723722       -0.00646952876147
N           -0.92128238673495       -1.32934232605054       -0.08246119915144
C           -1.64967884941041       -2.58502182819716       -0.14626181013019
H            3.89379062831657        1.39474515756459        1.00064167871194
H            4.08405839319448        1.19906541291998       -0.74814280267334
H            2.75617577665705        2.18842607083149       -0.10688698521656
H            3.67016717533564       -1.71863893817483        0.16095941573785
H           -1.61116774017627        2.90573114867624        0.02015596209839
H           -2.83956802620444        1.94808515885234       -0.90640207783175
H           -2.86304399872521        1.90939561802685        0.87264698076832
H           -1.49720171550856       -3.18743209944063        0.75765541897491
H           -1.41803095765200       -3.19410911281687       -1.02798119297448
H           -2.72104927635947       -2.26415456960299       -0.20178398816948
H            1.35438548623527       -2.91683928130612        0.14079200930927
25
 energy: 19.896057448904 xtb: 6.6.1 (8d0f1dd)
C            3.35617807522070        1.30715522191743        0.02953072895942
N            2.43518974655719        0.19429389153918        0.04537065508971
C            2.75063249364403       -1.25614647130130        0.14982740387958
N            1.48931668166238       -1.91952707711584        0.13649263520482
C            0.48306000070765       -1.06710432505023        0.00225401929517
C            0.99485729946080        0.25064794072539       -0.00744066062216
C            0.17608484577441        1.33605320973981       -0.07241734402082
O            0.43978231167669        2.57930251141296       -0.11385523638621
N           -1.24426702747545        0.93414434379532       -0.02111281682521
C           -2.22591187662711        1.96838680553007        0.01611918614947
C           -1.76565288581123       -0.26979010623483       -0.02291007455072
O           -2.98760692941506       -0.46750285162425        0.02414138166482
N           -0.91099075995515       -1.34933221724232       -0.10034523193585
C           -1.71615656280804       -2.57154233780876       -0.19094631871448
H            3.94795774977872        1.45050446649897        0.96014637254909
H            4.09442519840557        1.24522088931487       -0.78854698973584
H            2.76940493629668        2.21522323007070       -0.12419186184209
H            3.70409767914888       -1.71872395980251        0.22871623524628
H           -1.62196764984514        2.86764769232386        0.04376110346701
H           -2.85080200100904        1.89293420012328       -0.87583206633721
H           -2.85146082747705        1.83894046673146        0.90306935652541
H           -1.64240795239952       -3.19194391396465        0.71782742983858
H           -1.52193579942408       -3.20015329285065       -1.06870483934266
H           -2.77343134039500       -2.16628364748017       -0.26920245519683
H            1.38381926224442       -2.91337606707570        0.22528328378806
25
 energy: 30.191824980441 xtb: 6.6.1 (8d0f1dd)
C            3.37551232157793        1.33635894144734        0.00164584777273
N            2.46151261123805        0.21068160972752        0.05594402297864
C            2.78426583647877       -1.24800873312184        0.19382411395649
N            1.52182601203299       -1.91732680688684        0.18924614073861
C            0.50316351997115       -1.08042380612935        0.00655118824243
C            1.01492514785559        0.24505594983060       -0.01479985702840
C            0.19655264365896        1.32903952689546       -0.09942728279800
O            0.45030749913707        2.57388825906374       -0.15551236425030
N           -1.22199459768180        0.91785721777745       -0.02041944744693
C           -2.22529661485484        1.92908101736619        0.04256549709693
C           -1.74222743009951       -0.28158940419327       -0.01040463133229
O           -2.97029979827717       -0.45506780714061        0.06322050579590
N           -0.90368440410776       -1.37286321843051       -0.11902717556747
C           -1.78513008029739       -2.56106701389362       -0.24378681604673
H            3.99694563209665        1.50305140668734        0.91341266279176
H            4.09729380847452        1.28298725486880       -0.83473427028015
H            2.77870303767033        2.23925361062286       -0.14759984179823
H            3.73783898802354       -1.70772387736520        0.30917032656046
H           -1.64415163732470        2.84026826766913        0.07012329368867
H           -2.86332788152357        1.83554398362052       -0.83945636921739
H           -2.83531369446232        1.76366441774560        0.93726746274897
H           -1.79294412269245       -3.19260427019428        0.66857391498587
H           -1.62276685311102       -3.20608214528307       -1.11541142309419
H           -2.82430776311099       -2.08550525086428       -0.34701441063265
H            1.42481248726420       -2.90944052764751        0.32308280828268
25
 energy: 40.496854097219 xtb: 6.6.1 (8d0f1dd)
C            3.39075442227126        1.36202116172877       -0.02932591874436
N            2.48358004591308        0.22531418420332        0.06905782634454
C            2.81388809715995       -1.23547390353645        0.23979846178441
N            1.55430817770134       -1.91357497647166        0.24529734232864
C            0.52064173991997       -1.09568044142652        0.01123945285349
C            1.03306270267039        0.23707618645854       -0.02310876952013
C            0.21781242786528        1.32311679799787       -0.12845585233964
O            0.46786054569062        2.56638609686162       -0.20084795182188
N           -1.19531113483472        0.90562750137489       -0.02017229642563
C           -2.22206655258791        1.89309056912723        0.07087090115971
C           -1.71642650993954       -0.29155100338045        0.00641164529037
O           -2.94945905373192       -0.43618801767288        0.11250775777935
N           -0.90011584306895       -1.39812474228185       -0.13802445162020
C           -1.85495386390612       -2.55209642814477       -0.30343772829509
H            4.03927801016252        1.55059036964549        0.86276905800054
H            4.09383894461140        1.31016886457750       -0.88398188520052
H            2.78512948484641        2.25973812272109       -0.17632333133535
H            3.76886968315414       -1.68681073119039        0.39975892535314
H           -1.67257643447993        2.82167512628513        0.09776415312136
H           -2.87528052915892        1.77876792067535       -0.79917379091754
H           -2.81402429212750        1.68874781622724        0.97337552367976
H           -1.94001627066346       -3.18571333462396        0.61050072397060
H           -1.71552584172883       -3.21191612364574       -1.16593519139164
H           -2.87376646713395       -2.02334128257544       -0.43298799096006
H            1.47271317933164       -2.90282113076171        0.42945728305352
25
 energy: 50.965948315692 xtb: 6.6.1 (8d0f1dd)
C            3.40241541838435        1.38345760274750       -0.06189671491264
N            2.50160645450379        0.23866514327223        0.08405197381150
C            2.83945021073006       -1.21911010469014        0.28606967290835
N            1.58564212365586       -1.90765997263951        0.30222258327289
C            0.53646496413299       -1.11159358219407        0.01644840613120
C            1.04913929756679        0.22788729585852       -0.03218289642052
C            0.23814448719059        1.31763415299839       -0.15813940080607
O            0.48891296210937        2.55746392373275       -0.24850934980808
N           -1.16738214539609        0.89582058688950       -0.02000558868245
C           -2.21627890081428        1.86050288546584        0.09964331761299
C           -1.68905883442422       -0.30226469001113        0.02817922132913
O           -2.92386793652712       -0.42294216161225        0.17215349902093
N           -0.89894247144608       -1.42351991061085       -0.15670322940451
C           -1.92505320646278       -2.54225998850678       -0.36793950668945
H            4.07416357651297        1.59203880281125        0.81060696129726
H            4.08581236152112        1.32582221004148       -0.93360264333739
H            2.78974335321598        2.27631124288116       -0.20949502627819
H            3.79609142678914       -1.65654135346011        0.49714950260329
H           -1.70380441902101        2.80923118853003        0.12503001973408
H           -2.88541263299312        1.72412604207654       -0.75697669266100
H           -2.78780910828083        1.61838445675432        1.00973214295191
H           -2.08000995088197       -3.16958023905290        0.54562238938848
H           -1.79989969315574       -3.21771861331261       -1.21827149659237
H           -2.92253136317291       -1.97319303641214       -0.52491078879770
H            1.52467869419940       -2.89193327938479        0.53875754047576
25
 energy: 53.285509007117 xtb: 6.6.1 (8d0f1dd)
C            3.40514930706013        1.39321534197990       -0.10178054344739
N            2.51116449255516        0.21977690076358        0.12240337273369
C            2.83596090892068       -1.16469356707187        0.32574843969234
N            1.64828593975195       -1.89635294332708        0.36485316038320
C            0.53894250600576       -1.14344286415476        0.01815920603045
C            1.08326692840243        0.18971157713764       -0.04548930589713
C            0.23876619320344        1.34185374944780       -0.19135854619679
O            0.53096546454138        2.52191947396582       -0.30104709501412
N           -1.10172209028079        0.91324883969733       -0.02675934126546
C           -2.20546261989588        1.83943394330690        0.13253097404074
C           -1.64944654640983       -0.31880397681242        0.05837194988057
O           -2.87439818962220       -0.35484188022660        0.24394080854872
N           -0.89751635304637       -1.48308245297747       -0.17523470931800
C           -2.00972921859894       -2.55258011103595       -0.44383620882397
H            4.09287032480165        1.61567147328775        0.73646254701241
H            4.05922165462093        1.33224053956932       -0.99048703703328
H            2.79279209628286        2.28646867026301       -0.24143933630624
H            3.80651269907179       -1.58514782859003        0.61160957062487
H           -1.77321741929082        2.83218250909035        0.15834610908026
H           -2.89482568055017        1.66267615369922       -0.70482820798175
H           -2.75302062424613        1.53156080061807        1.04343342403056
H           -2.25557547496817       -3.12918395236921        0.45701608660193
H           -1.90020190989563       -3.22568301414040       -1.27318530754058
H           -2.94778945891974       -1.96243877056071       -0.62299351095245
H            1.63122173844276       -2.87468000938790        0.67259739726485
25
 energy: 70.538503914241 xtb: 6.6.1 (8d0f1dd)
C            3.42088644184825        1.41743363674151       -0.14058116919942
N            2.53000593349316        0.24141552713642        0.13831660161385
C            2.85978727801455       -1.13651102341776        0.39208360831396
N            1.68061425579660       -1.87857189427226        0.43467172281180
C            0.55669878250628       -1.15630146104661        0.03042498139999
C            1.09662685067964        0.18594777256721       -0.06837464594331
C            0.25760336139886        1.32572471163933       -0.21548472431759
O            0.53488292229895        2.51453797648588       -0.37301775192749
N           -1.07638278689048        0.88735545496826       -0.01696570940119
C           -2.18871006739869        1.80064967805300        0.16921144583965
C           -1.61389997539886       -0.34682184634147        0.07969161330354
O           -2.83293978652172       -0.37619330930087        0.31202859204146
N           -0.89515204767099       -1.51740284428845       -0.19331227033636
C           -2.09242190943765       -2.54007591389043       -0.51912522603400
H            4.14421318554188        1.65916850861179        0.66994315518348
H            4.04627374999632        1.35049371538343       -1.05419780403526
H            2.80363876457040        2.30827847573284       -0.27349985387974
H            3.82399079837248       -1.54339988133968        0.72305720421738
H           -1.78967144614184        2.80579620071293        0.19562552931376
H           -2.89522659469736        1.61048449626604       -0.65198113882661
H           -2.71180606535335        1.46655525182452        1.08578121604791
H           -2.43559354470361       -3.10568429474068        0.38062119601700
H           -1.99849108268048       -3.24574874231469       -1.33060892009717
H           -2.99913996638761       -1.89266406479848       -0.74818587709648
H            1.68642761670149       -2.84543752819947        0.80091212113826
25
 energy: 86.422210880977 xtb: 6.6.1 (8d0f1dd)
C            3.43540505208407        1.40969049756906       -0.16359567735747
N            2.53859335543151        0.22969133920877        0.16019256967359
C            2.82218603626298       -1.04494007111591        0.47898172793644
N            1.71884513214646       -1.81733253789510        0.48008719300186
C            0.55821516937143       -1.15317955061283        0.06015634548063
C            1.11569067648170        0.18049800380273       -0.15058798665203
C            0.24097811556806        1.29919438558921       -0.17932526339395
O            0.48848163308908        2.48765851134836       -0.46732647373203
N           -1.04869371681967        0.84281832776286        0.02246491676868
C           -2.14270412697448        1.77532709447980        0.19665534195287
C           -1.55926947169419       -0.43105520044825        0.08212658633317
O           -2.71557870435075       -0.50334906817347        0.35985793435668
N           -0.88800621646113       -1.58002804521595       -0.18006256237232
C           -2.17951822816026       -2.52291523092052       -0.55728840189103
H            4.18254226554794        1.65885193334396        0.60310971076895
H            4.02547385746886        1.35524034584462       -1.09407204271948
H            2.82718341877859        2.31308913472946       -0.27120636677991
H            3.75852795850619       -1.45979155346725        0.77533185400843
H           -1.78985061494119        2.77022924415484        0.22923968023361
H           -2.85681748560814        1.58807078272597       -0.60545941218987
H           -2.64505732174659        1.46077482915927        1.09248113270135
H           -2.61551850836133       -3.02114067223140        0.29124288326823
H           -2.11113513781667       -3.28882374074101       -1.34701092208476
H           -2.99215130334523       -1.81443861149156       -0.85752020576829
H            1.74439283347904       -2.74511154523331        0.86856133460410
25
 energy: 97.994875555905 xtb: 6.6.1 (8d0f1dd)
C            3.45132506601101        1.42811242851840       -0.18743981418177
N            2.56518718050809        0.25331699138072        0.14642923943875
C            2.85650287714242       -1.01872611263315        0.54676512156527
N            1.75066470921111       -1.80648311770920        0.52563764683799
C            0.58665313100093       -1.16685981173806        0.05375349005175
C            1.13787952917244        0.17964126477032       -0.18393015616213
C            0.28163904955725        1.28752849589704       -0.24323689851981
O            0.51797121653107        2.47195924616128       -0.49452945496574
N           -1.02131029121800        0.83021847693784        0.02182478068799
C           -2.14347830365913        1.72383364244647        0.21603789043730
C           -1.53007865897824       -0.43360454293505        0.12936984855041
O           -2.69472643369899       -0.50269888857848        0.52645736068998
N           -0.89120149200546       -1.59918605328179       -0.21313791593648
C           -2.28311865356208       -2.49627626515195       -0.63806340974436
H            4.19754834866975        1.68512864162380        0.57208645000197
H            4.02884888277079        1.35443388740812       -1.11942123548917
H            2.83256278339498        2.32538615890636       -0.30464760851520
H            3.80426198079379       -1.40986658417900        0.87513603326277
H           -1.82504538714085        2.74107304906142        0.23494932085319
H           -2.86091135368194        1.50384147900650       -0.58233211997287
H           -2.62316467089770        1.37333542663429        1.13173262005281
H           -2.75013167670640       -2.94549685667214        0.21110719709072
H           -2.20372030042534       -3.30412250523930       -1.38581627766185
H           -3.06580533577768       -1.76381298543552       -0.97368911506941
H            1.79386247092443       -2.72164686302657        0.96199090284539
25
 energy: 110.932297483051 xtb: 6.6.1 (8d0f1dd)
C            3.47200381294266        1.44007105060025       -0.19951152418103
N            2.58606575851426        0.28411351984900        0.11216489995547
C            2.87622957050129       -0.96590327496006        0.58673530156633
N            1.78281800287604       -1.77888431011780        0.54371745823545
C            0.62004942877989       -1.16920062151489        0.06211369572702
C            1.16194084105143        0.18480199554513       -0.20846354357734
C            0.29900088538412        1.28366244280007       -0.27750254963922
O            0.50722443035951        2.46781899267743       -0.51707660321714
N           -1.00072679256511        0.80301553786559        0.03765382938162
C           -2.13766845509421        1.67099551847674        0.22172229273472
C           -1.48751449024547       -0.46702608364384        0.21719318426646
O           -2.63341523066683       -0.56973266620445        0.66206773700459
N           -0.88189717537333       -1.63351570253056       -0.21481261367606
C           -2.39884842521302       -2.47631206757706       -0.71560635030710
H            4.21827199806880        1.68152926270975        0.55938869992698
H            4.03807632108532        1.34366870450598       -1.13391917270628
H            2.85388198938971        2.33670615768934       -0.31611084231045
H            3.83979889656125       -1.33561089927828        0.92343370893708
H           -1.83488289083391        2.70177255779738        0.22506630235018
H           -2.84248323042702        1.42980707930858       -0.58211371756308
H           -2.60427184568943        1.32559691089983        1.15122390584573
H           -2.92539465315660       -2.85119450166060        0.16854293229822
H           -2.29715561943368       -3.33284980683585       -1.39728529921022
H           -3.13728407494500       -1.70402211884298       -1.10279151186719
H            1.83839561606556       -2.68027907538628        1.02120367617273
25
 energy: 122.256398264359 xtb: 6.6.1 (8d0f1dd)
C            3.49016415822128        1.44678203341846       -0.20452796559558
N            2.60675456383955        0.31317778446245        0.06721417360197
C            2.89658899132960       -0.90443882167332        0.61714018711955
N            1.81664419872505       -1.74863149940837        0.55537987892077
C            0.66680916437859       -1.16199221276141        0.07536057294741
C            1.19520334398816        0.19049967467648       -0.21179702027819
C            0.31517435952964        1.28677371676886       -0.30797304759420
O            0.49637007757892        2.46715405205386       -0.51675603607636
N           -0.97548908939900        0.77654973233907        0.04216076472584
C           -2.13529404112788        1.61329863301492        0.21395250242592
C           -1.42970941896688       -0.50556472062884        0.31011320362656
O           -2.54684928334395       -0.65676185826003        0.80795877530290
N           -0.86635038678879       -1.66612918456193       -0.19871532334917
C           -2.56126440028049       -2.45198747383464       -0.80102788383303
H            4.23077879593139        1.67327103255610        0.56664611332278
H            4.05309255310061        1.31781033086338       -1.13466788274757
H            2.87616685931260        2.34207151018468       -0.33410705784583
H            3.88578646519451       -1.24790399797450        0.95137252194765
H           -1.84994342921452        2.66405784202049        0.20384637886218
H           -2.81990715675281        1.35528730645068       -0.60068772300407
H           -2.59445677230014        1.27997698096923        1.16036009892112
H           -3.05000573225611       -2.73331485033088        0.10469887391876
H           -2.41985346316943       -3.35094208278922       -1.39615503045029
H           -3.24618642110312       -1.67531585264242       -1.20379232190414
H            1.87799073150948       -2.63469947274068        1.06103714318250
25