25
 energy: -42.360326109999 xtb: 6.6.1 (8d0f1dd)
C            3.58195627201154        1.48230888585428       -0.16643542302186
N            2.70924392172465        0.37632161875929        0.12385453112617
C            2.96837625789364       -0.88138490391441        0.49275705526344
N            1.84832123281403       -1.62320603358066        0.59176392312843
C            0.78044581129765       -0.76912043395277        0.34451895193699
C            1.36284493464389        0.46658386555899        0.00694050654098
C            0.34514564001038        1.44811610174950       -0.15890395385871
O            0.45233070516580        2.63903693908989       -0.44273774686835
N           -0.83761467427630        0.76438321369503        0.08115451860731
C           -2.07333542747696        1.53223872089796        0.16735223105635
C           -0.66694742411209       -0.59781895201026        0.45093318135088
O           -1.58322452236939       -1.15099487343665        1.09151775195879
N           -2.16379590413281       -2.25580024156365       -0.80160205212886
C           -3.40953177060787       -2.54257475652216       -1.04068247445495
H            4.23184423118210        1.67671975503123        0.67249772695592
H            4.20397621217013        1.28444773098200       -1.03855877791893
H            2.97465763116581        2.36908796748580       -0.36015184756373
H            3.91294991909890       -1.29115994131132        0.75050656328088
H           -1.80605890133868        2.59751829928763        0.17731865521757
H           -2.73680432427251        1.32569839592714       -0.67461954344356
H           -2.61143500607461        1.30229648556896        1.08570054787438
H           -2.93023222322622       -2.37783143072659        0.08150411783598
H           -3.52128135940148       -3.61170351122526       -1.18012347508380
H           -4.05358584595256       -1.72409044673920       -1.36228353283752
H            1.78668948324530       -2.60358211206195        0.86351518399387
