25
 energy: 0.000000000000 xtb: 6.6.1 (8d0f1dd)
C            3.23720132972391        1.16630909158653        0.08434468864950
N            2.29877796055224        0.07527476373246        0.03981602671198
C            2.58028186251803       -1.21425391179017        0.03006175752192
N            1.43813944744728       -1.93419254010258        0.00098261751768
C            0.39035684826767       -1.05887462812143       -0.00790371763344
C            0.93510047688824        0.21347817468824        0.01709077332874
C            0.09450143016486        1.40504290868848       -0.00410946993748
O            0.49712746915594        2.54126690785742       -0.00342325656480
N           -1.25076628431515        1.06271869620815       -0.03085477937476
C           -2.21907191394203        2.15522079838987       -0.05001256521996
C           -1.81739470187490       -0.20012724136556       -0.04692818139228
O           -2.99983858926755       -0.37846413507442       -0.07008877579474
N           -0.92618577614240       -1.30210203518959       -0.03682761236648
C           -1.46982251276835       -2.64643077634382       -0.06029819901142
H            3.71247229913541        1.21471443890471        1.06488839270555
H            4.00791460421487        1.03430799217987       -0.67357688121503
H            2.69909982127087        2.09770098766290       -0.09130154035862
H            3.56654087521359       -1.63682977417947        0.04233139674524
H           -1.67107945562430        3.09322822573871       -0.02552706696334
H           -2.82428927394145        2.09428605349656       -0.95318074103337
H           -2.87644002486466        2.07745706351925        0.81450059976605
H           -1.17061985538665       -3.19584861009707        0.83242224714061
H           -1.14560246782873       -3.17511580834413       -0.95688266944647
H           -2.55549768731684       -2.55659960601237       -0.07459039105944
H            1.38130842369251       -2.94313824728853       -0.01389874052104
25
 energy: -5.123124164312 xtb: 6.6.1 (8d0f1dd)
C            3.26566911821782        1.19666633145485        0.07803830987689
N            2.33850158939600        0.10896221048804        0.03601628366471
C            2.63851339218904       -1.24327589069215        0.06963782021695
N            1.45185914956618       -1.93693029191055        0.04583391101077
C            0.42964800299597       -1.07058671767153       -0.01542717167756
C            0.94727548052078        0.22612630594145       -0.00522032491737
C            0.12860785966301        1.37274214565425       -0.02494933565654
O            0.46848356796540        2.56003592151086       -0.03357591698480
N           -1.25680085573788        1.01084492714796       -0.02942379845627
C           -2.21884771561919        2.09980939394479       -0.03480888609135
C           -1.78554073507406       -0.23879152726908       -0.02403945516598
O           -2.98540609065083       -0.43648613896856        0.03195444347318
N           -0.90978554087514       -1.33791851372304       -0.11382988490322
C           -1.55368061504281       -2.62920337557167       -0.11375574182871
H            3.75819450086170        1.25510737386218        1.05389701135165
H            4.03191607639739        1.08174129577066       -0.69306294623881
H            2.71474995826261        2.12157578737814       -0.09267922814948
H            3.60935693829684       -1.67913017722312        0.09104276542971
H           -1.65431481368485        3.03215934864809       -0.01615321899418
H           -2.83152599971876        2.03804032751707       -0.93426311692430
H           -2.87031349693549        2.02159944723660        0.83542925497478
H           -1.31937470953481       -3.19567023209317        0.79082002170227
H           -1.28084208439128       -3.19873320733783       -1.00052855451282
H           -2.62529258572116       -2.42878312224646       -0.12952382464797
H            1.37144307654516       -2.93844001803342        0.05763517716929
25
 energy: -0.758198172419 xtb: 6.6.1 (8d0f1dd)
C            3.28548513347343        1.21525366119663        0.06830532416996
N            2.36926048406606        0.10975065184574        0.03711806394919
C            2.67352290611425       -1.24660273905373        0.10311953210873
N            1.48716651677128       -1.94410427203470        0.09065075247753
C            0.45579928683831       -1.09814124580960       -0.01317114450857
C            0.97368052012401        0.20941495736022       -0.02428453270849
C            0.15177632169500        1.35646976919627       -0.04599292651321
O            0.46966736907119        2.55077484398131       -0.06800828837691
N           -1.22710318415941        0.98317546020924       -0.02555763788242
C           -2.20887953907610        2.05523774984226       -0.01854805197841
C           -1.73908262928792       -0.26505658098179        0.03144725050615
O           -2.93949344969994       -0.42369897036425        0.17210942234223
N           -0.89145528407144       -1.38587678255411       -0.12877511743840
C           -1.64173011294004       -2.62138639396331       -0.16738649186248
H            3.79133258885092        1.28584966626071        1.03757180660551
H            4.04797151306563        1.11943854978774       -0.71104866388421
H            2.72755449877880        2.13875803701270       -0.09706281309686
H            3.64167384030995       -1.69334221224203        0.14389084177763
H           -1.64897925204354        2.99104836137301       -0.00708761749831
H           -2.83161811083139        1.97887234371898       -0.91108230683439
H           -2.85459045840740        1.96357566879568        0.85579431816187
H           -1.48223021036858       -3.20777818628803        0.74177949685516
H           -1.41446066209787       -3.20774665903020       -1.05238896842586
H           -2.68932568894520       -2.31365796690153       -0.19030410480878
H            1.38747227714988       -2.94234314923880        0.13083532720957
25
 energy: 6.397446528454 xtb: 6.6.1 (8d0f1dd)
C            3.30401828599793        1.23580749772020        0.05627004372879
N            2.39968724125020        0.11331475469315        0.03978786605289
C            2.71167248183058       -1.24241099916948        0.14172824025176
N            1.53063492235763       -1.94999577351685        0.13872302829209
C            0.48703924330111       -1.12687194835973       -0.00097767264366
C            1.00094628420873        0.18961706219816       -0.04354386520588
C            0.17667590178895        1.33798864261171       -0.07247293573201
O            0.47995985039295        2.53632797002261       -0.11068209119357
N           -1.19454813138708        0.95204113635698       -0.02785372749483
C           -2.19613199734155        2.00849171616337       -0.00091574211421
C           -1.68517477331736       -0.29960929036304        0.07357866009307
O           -2.87791255221277       -0.42649780535080        0.29804872162205
N           -0.85786158366921       -1.44000889816868       -0.14200082574887
C           -1.71798411101008       -2.61484735426891       -0.23543267611825
H            3.82402460730668        1.31839786546361        1.01812523353422
H            4.05977032198251        1.15628639538202       -0.73315056646585
H            2.73753061928419        2.15655772012144       -0.10506577935745
H            3.67871870117478       -1.68950982868390        0.20803432618944
H           -1.64302564099981        2.94878550984488        0.00372504166472
H           -2.83344322838866        1.92248985028006       -0.88312328486611
H           -2.83376786967086        1.90474716783715        0.87931396734450
H           -1.64366152378539       -3.21577622606233        0.67863735342753
H           -1.53284193903567       -3.21419435714441       -1.11864299891600
H           -2.73516406861925       -2.20935905324359       -0.27457304506354
H            1.42754276449249       -2.94641356540986        0.20494205412624
25
 energy: 15.485722072513 xtb: 6.6.1 (8d0f1dd)
C            3.32076926054031        1.25739138219329        0.04022873250354
N            2.42582112045694        0.12105837282691        0.04694211580551
C            2.74107618350385       -1.23103474792464        0.19457524936252
N            1.56701588039661       -1.94904261620111        0.17748403067763
C            0.51664078583298       -1.14713876180834       -0.02875641244057
C            1.02496059360156        0.17614501528509       -0.08545679115886
C            0.19519907262046        1.32130808407232       -0.10786952482285
O            0.48632547339941        2.52236917868785       -0.15401518536915
N           -1.16792735107959        0.91655151781904       -0.03407575269217
C           -2.18725364147005        1.95871670823834        0.02031818067581
C           -1.63482686070632       -0.34658409024513        0.07950747481613
O           -2.81241619710194       -0.47973012716869        0.36815505457775
N           -0.83104062631712       -1.49132824520616       -0.20756186696632
C           -1.78728903663302       -2.61380914224133       -0.32792260256704
H            3.85517616615961        1.35313707329227        0.99421102742420
H            4.06808804834612        1.19018792732200       -0.76017662135457
H            2.74624671943761        2.17434264114555       -0.12214634872672
H            3.70832596576673       -1.67727152567438        0.27567347854821
H           -1.64230783694371        2.90429121425375        0.01726950340683
H           -2.84088198493182        1.86774354550864       -0.84984611782517
H           -2.81217143325031        1.84466520888583        0.90851707262966
H           -1.79343918328726       -3.20552589329623        0.60028967878669
H           -1.64114847060580       -3.23269909884122       -1.20042329843944
H           -2.77234514858026       -2.13083591669951       -0.38641153826562
H            1.46641629890016       -2.94371629195895        0.27538993445841
25
 energy: 25.130955522583 xtb: 6.6.1 (8d0f1dd)
C            3.33489642386496        1.27838343571333        0.01769593389944
N            2.44612661866228        0.13236616803274        0.05513857634171
C            2.75898920117114       -1.21522033333923        0.24733379308981
N            1.59079205031332       -1.94108556323634        0.21048777111714
C            0.53956686197836       -1.15832604808551       -0.07250611414840
C            1.04487519180501        0.16938110301878       -0.13822458974723
C            0.20962336520138        1.31165530113008       -0.14463256392125
O            0.49540104657755        2.51347564401235       -0.19566454461673
N           -1.14424015861195        0.89406296736048       -0.03661717396255
C           -2.18142842971717        1.91763532861511        0.04534791169591
C           -1.59214475039252       -0.37908456566894        0.10831842047210
O           -2.73970131980403       -0.52474231775176        0.49084306505833
N           -0.83504307865059       -1.51125737144009       -0.28957098366810
C           -1.87168486359745       -2.59388924744631       -0.42348957091093
H            3.88526361414443        1.38763974955626        0.96265480766722
H            4.06945740353907        1.21879912696455       -0.79695062226706
H            2.75160689040130        2.19080563270488       -0.14596452169003
H            3.72729986078783       -1.66003775071928        0.34690367381332
H           -1.65121646133875        2.87047763605887        0.03810675540214
H           -2.84894994459269        1.81827913472713       -0.81416851014016
H           -2.79320627336107        1.78793302158171        0.94008059130095
H           -1.94008682037577       -3.17441364145473        0.51420973696124
H           -1.75039642611816       -3.23916181506960       -1.28207513796633
H           -2.82564232030346       -2.05921357893229       -0.51560873286279
H            1.49771974690962       -2.93361134676258        0.34354354435283
25
 energy: 36.250234183060 xtb: 6.6.1 (8d0f1dd)
C            3.34669649790680        1.29639379134283       -0.00652000087452
N            2.46242638871405        0.14431381921650        0.07430358607603
C            2.77116771499507       -1.19705975578457        0.29915782619573
N            1.61175671897532       -1.93101524373256        0.24387428549279
C            0.56023605467098       -1.16812462053194       -0.10794154263641
C            1.06475476709794        0.16542334492272       -0.16718395679829
C            0.22035661744610        1.30166529080934       -0.17788052792166
O            0.50064078969611        2.50417389667322       -0.23894037718422
N           -1.12318310077764        0.86857030135317       -0.03255369398075
C           -2.17607380231812        1.87513119979575        0.07384609057329
C           -1.54829382556063       -0.41629256557783        0.16177077435508
O           -2.65041892272438       -0.58316564319615        0.64918691377119
N           -0.85094260181694       -1.53558935486441       -0.34366409631324
C           -1.96681287219878       -2.57243463770354       -0.49998594279880
H            3.91594621050052        1.42261351242142        0.92582036104474
H            4.06498542312229        1.23803531756694       -0.83767944678358
H            2.75543774003837        2.20388774713610       -0.17505661555985
H            3.74082807304004       -1.63786574641117        0.41755728811438
H           -1.66813578939813        2.83913775193404        0.06516146320611
H           -2.85507042540450        1.76853061945319       -0.77630600179112
H           -2.77391988684214        1.72947327982892        0.97450160234882
H           -2.09444795788444       -3.13568270546663        0.44368623579743
H           -1.86348099748477       -3.24934789119596       -1.34000619747641
H           -2.88444508617937       -1.99375294396120       -0.64816166728231
H            1.52739950624729       -2.92103822677357        0.40837854796158
25
 energy: 80.548585635908 xtb: 6.6.1 (8d0f1dd)
C            3.39342765626684        1.33998853926215       -0.02649757288343
N            2.54348818179449        0.16316763186419        0.09180786244625
C            2.87459844348176       -1.12800882521690        0.33343856389471
N            1.75242818366379       -1.88102586846099        0.32318015624604
C            0.72406143722907       -1.09962178926013        0.00151449018611
C            1.17885722066445        0.18599160345800       -0.13375837506272
C            0.21099316116171        1.30079100337047       -0.18994766051750
O            0.50825974056702        2.48626794657879       -0.28050518382278
N           -1.05735264189421        0.82986170667462       -0.02391140395263
C           -2.15026880654931        1.81080325973838        0.09222737895200
C           -1.53668942531383       -0.56138425274212        0.16538085268785
O           -2.53657277339122       -0.63361002754664        0.85329606349137
N           -1.14142678047502       -1.62033587330186       -0.57448096471285
C           -2.24675184601707       -2.58564364033837       -0.58532936731702
H            3.97283994803156        1.48372285027949        0.89234550111031
H            4.07604008371779        1.26946050797711       -0.88099789074327
H            2.77038435287979        2.22589097331283       -0.20828268865592
H            3.83339469844108       -1.57513027084543        0.49816756963601
H           -1.69115478266247        2.80056094953529        0.09057079488753
H           -2.84637741835664        1.69783084633240       -0.74369800966731
H           -2.74007856667029        1.64890505947972        0.99712380577668
H           -2.32236207382454       -3.10578058124619        0.38718482515863
H           -2.10568289978889       -3.30892696865626       -1.37781584828459
H           -3.10306333280477       -1.95307205182021       -0.76764414253427
H            1.60097599760288       -2.86750745344215        0.49350655991758
25
 energy: 85.717171295370 xtb: 6.6.1 (8d0f1dd)
C            3.40593906019511        1.35816085716224       -0.05894859180413
N            2.56256763577007        0.17886382264771        0.09811970737677
C            2.88745334330970       -1.10317593723495        0.37450116914836
N            1.76602104909320       -1.85560947465551        0.37665770382239
C            0.72765013369620       -1.07477530073708        0.06458147581314
C            1.20099799792278        0.19992108583947       -0.11999552124530
C            0.21391720472957        1.29586703737722       -0.18849253466670
O            0.50232087392521        2.48092432402720       -0.30743622593589
N           -1.04028836891750        0.80005924919001       -0.01037995703154
C           -2.14830220253821        1.76184860805712        0.12281807858156
C           -1.48066878251835       -0.62868474441088        0.21366919991760
O           -2.37473362347184       -0.72048795234864        1.02869763296474
N           -1.23374302354238       -1.65274041753068       -0.65386264263041
C           -2.37572743154920       -2.56273375893291       -0.63947754742344
H            4.00407040502340        1.51542024662908        0.84690961550982
H            4.06526523341069        1.28260697618630       -0.93120896851522
H            2.77502631944735        2.23994806447010       -0.23320467703505
H            3.84350502996087       -1.54513417469120        0.57289087100157
H           -1.72206980120612        2.76905778697087        0.12221887054674
H           -2.85379829947847        1.64434769591968       -0.70455558665119
H           -2.72234021255422        1.58024331673611        1.03388966143155
H           -2.48736108875572       -3.05522618562816        0.34115787182939
H           -2.25964084410869       -3.33035252737156       -1.39233896057065
H           -3.16375774956695       -1.86910464683131       -0.87210658362055
H            1.63127533000701       -2.84377291273698        0.56251809803702
25
 energy: 89.892712256359 xtb: 6.6.1 (8d0f1dd)
C            3.42281152018582        1.37463875951905       -0.09011467152823
N            2.57565057482944        0.20383945245390        0.09406927148234
C            2.88097310873837       -1.07540011899562        0.40450429246901
N            1.74869050087745       -1.81198813184334        0.44212352084950
C            0.70460998915134       -1.00715367373165        0.16370775304786
C            1.21638346126708        0.23718150507789       -0.09479951555217
C            0.21464280361202        1.31213910482924       -0.19419891404723
O            0.49503289978798        2.49617731243405       -0.33755444816323
N           -1.02205115959821        0.78376952947882       -0.02628371209193
C           -2.14348487557846        1.71741584482783        0.14665793095146
C           -1.36251565945738       -0.71541075912767        0.24941311494411
O           -2.14043042050627       -0.82509422328285        1.17923498694517
N           -1.34411215383624       -1.70761218924918       -0.73783666306738
C           -2.52350157044906       -2.53761763312963       -0.68891775852779
H            4.03946303738544        1.53736568933300        0.80235948124204
H            4.05441389856467        1.29517647405311       -0.98190797561911
H            2.79615210581576        2.26068315324021       -0.24263343812009
H            3.83573420540156       -1.51543436616130        0.62770730169162
H           -1.75387192684602        2.74221344312648        0.15480050677922
H           -2.86255757477752        1.60449211141506       -0.66726725148690
H           -2.69657084240772        1.50861036092429        1.06602278998214
H           -2.65411674034133       -2.98246472216536        0.30684930510423
H           -2.42970499140557       -3.35448842097657       -1.39104147696808
H           -3.26131346016336       -1.80666428769056       -0.95801586653295
H            1.64274141697844       -2.80549052800417        0.63601463550681
25
 energy: 91.958533077329 xtb: 6.6.1 (8d0f1dd)
C            3.43416554269853        1.38671298700471       -0.12225139649173
N            2.57514486083342        0.23293369165219        0.09441822378685
C            2.85615508134223       -1.04450257227612        0.43566910519738
N            1.71554877891432       -1.76474021529485        0.49642060326029
C            0.66729031895488       -0.93791741474057        0.23455996994029
C            1.21748532893010        0.28155377694351       -0.06144916743640
C            0.21458373600143        1.34936007908361       -0.20757192501224
O            0.49751927977673        2.52825839043827       -0.37740457563539
N           -0.99989303594967        0.79353730214339       -0.04712863209207
C           -2.13228459798704        1.69162478892806        0.16047369812883
C           -1.18954321001761       -0.81317934909299        0.27330590513123
O           -1.93848751012776       -0.91602563862357        1.25049547998967
N           -1.42016092331475       -1.80707600157097       -0.74643990631461
C           -2.67180698985430       -2.49943525247001       -0.73176549375328
H            4.07204201875360        1.55836732316751        0.75387658304455
H            4.03427740929236        1.29821835997393       -1.03441187052854
H            2.81743752750412        2.28053918259987       -0.25897850772698
H            3.81286997419890       -1.48351476710427        0.67345783735099
H           -1.77667025782148        2.73043355299815        0.18646968342673
H           -2.85135023422893        1.57804003143173       -0.64867898233610
H           -2.66792963874511        1.45287328268571        1.08399955504523
H           -2.81388723585491       -2.89276741697148        0.27766950467768
H           -2.59911527081477       -3.36552421308321       -1.37704014075075
H           -3.36732436404006       -1.74543357642253       -1.04665918876882
H            1.64239546162133       -2.76329742730215        0.70175717482710
25
 energy: 93.147789060009 xtb: 6.6.1 (8d0f1dd)
C            3.45256468583779        1.40318968201039       -0.13321290048683
N            2.58655747504450        0.26104240166286        0.10454950465653
C            2.85844189080063       -1.01230930119565        0.46122606434253
N            1.72279008184948       -1.73670480688634        0.51835317397949
C            0.66956205668807       -0.91353144893991        0.23987138511831
C            1.23119401675590        0.30432361420110       -0.04767742085731
C            0.22141157594801        1.36100964034998       -0.21544391321710
O            0.48989052452720        2.53702794029880       -0.41762394393847
N           -0.98080029894083        0.78433765956382       -0.04898103831295
C           -2.12067288870807        1.66653384589485        0.16377080344472
C           -1.11466061604003       -0.85053266310578        0.24443807711105
O           -1.82713772800422       -0.97619831051408        1.27079320125294
N           -1.49992926765926       -1.87174150901494       -0.70036188261527
C           -2.81033114137484       -2.45261023404665       -0.76802279530111
H            4.10321888636742        1.58617551783903        0.72678675373167
H            4.04113158564299        1.29538842456738       -1.04940688264006
H            2.84419371565537        2.30080871477541       -0.27708277036378
H            3.80714146075979       -1.44799585618274        0.72145914811836
H           -1.78003930591459        2.71047387306673        0.20409232767091
H           -2.83710859378367        1.54075643278305       -0.64530596722669
H           -2.63718783306238        1.42456313896802        1.09573594353569
H           -2.97810465358941       -2.80131549348282        0.24885197893090
H           -2.74305177275945       -3.37083451339793       -1.34670626951002
H           -3.48523120512877       -1.70891046844378       -1.14149421901951
H            1.66418979291311       -2.73326476547041        0.74841379011811
25
 energy: 96.802047050093 xtb: 6.6.1 (8d0f1dd)
C            3.47832288238562        1.42309019634331       -0.14170856073335
N            2.60520056843785        0.29273950474391        0.11503660955221
C            2.88017583642108       -0.97560431485754        0.47983720613583
N            1.75526539311134       -1.71288307508460        0.53353158203449
C            0.69645424060600       -0.90398586457073        0.23694134174251
C            1.25094536604420        0.32114512093632       -0.03535410844334
C            0.22963431451416        1.36103949198610       -0.21580908697197
O            0.47177744261541        2.53694242728022       -0.44133724052363
N           -0.96436160769264        0.76155228152623       -0.05001560413666
C           -2.11272101275401        1.63140416231236        0.15767234822017
C           -1.09681546288874       -0.86915947736213        0.21448837462646
O           -1.75480080054625       -1.01186612047812        1.28128490233290
N           -1.59166921012837       -1.88850884435340       -0.70398196610177
C           -2.93284711651598       -2.41899096802597       -0.79672131005483
H            4.13393122405339        1.61496888136354        0.70773834858004
H            4.07498665597016        1.28587913341175       -1.04724173845040
H            2.87734121851011        2.32145859761321       -0.30293691516099
H            3.82118737919966       -1.40284910655242        0.75198715384543
H           -1.78123582408913        2.67771825011477        0.19587530819979
H           -2.82605715374679        1.48844115779797       -0.65040652085358
H           -2.61404396999541        1.40077592129301        1.09888512296240
H           -3.12096859746329       -2.68306791238148        0.23362418586482
H           -2.87983896547211       -3.37983022347281       -1.30466427940269
H           -3.60442782789428       -1.68786835995547       -1.22034659353088
H            1.70126703360716       -2.70460120188240        0.78800578037164
25
 energy: 95.503815902255 xtb: 6.6.1 (8d0f1dd)
C            3.54290185215349        1.45418297412208       -0.15793561745030
N            2.67202495292256        0.33832922097809        0.11949021476520
C            2.91819140627856       -0.92088233714662        0.47913932967643
N            1.78030641271473       -1.65423351780153        0.57441067034940
C            0.71365481833257       -0.78262412231374        0.33978698270977
C            1.32400094372613        0.44675177180714        0.00016108302205
C            0.33137319258254        1.44225325673530       -0.16967495624223
O            0.46065750210150        2.62956491778559       -0.46071907943943
N           -0.86387827712183        0.78726178998931        0.06406878063261
C           -2.08202794039958        1.57601507475261        0.17352384208270
C           -0.66139337910269       -0.57704773415413        0.37480342630227
O           -1.74410004417239       -1.31208690915346        0.71932545499259
N           -1.87826339320493       -2.08703941289986       -0.67689041581718
C           -3.21471395777594       -2.49811426503312       -0.81623437961178
H            4.19392782063160        1.65155370531407        0.68711727921874
H            4.14692147400955        1.28486017058091       -1.04970720438227
H            2.93179242677240        2.34249764012659       -0.33578591922457
H            3.85739058948296       -1.35386210857255        0.73874740941903
H           -1.78455920286872        2.63265865569765        0.18234420920719
H           -2.76262723571726        1.39464326969982       -0.65948047962632
H           -2.61548666890487        1.36674266883864        1.10070095322383
H           -3.38125874465743       -2.63117269968938        0.23968667652697
H           -3.16967515438562       -3.48324491512215       -1.26950345616175
H           -3.80726237232493       -1.72480285733338       -1.29363434014458
H            1.72743111188055       -2.63926486646101        0.83207789071765
25
 energy: 138.080064741421 xtb: 6.6.1 (8d0f1dd)
C            3.58195627201154        1.48230888585428       -0.16643542302186
N            2.70924392172465        0.37632161875929        0.12385453112617
C            2.96837625789364       -0.88138490391441        0.49275705526344
N            1.84832123281403       -1.62320603358066        0.59176392312843
C            0.78044581129765       -0.76912043395277        0.34451895193699
C            1.36284493464389        0.46658386555899        0.00694050654098
C            0.34514564001038        1.44811610174950       -0.15890395385871
O            0.45233070516580        2.63903693908989       -0.44273774686835
N           -0.83761467427630        0.76438321369503        0.08115451860731
C           -2.07333542747696        1.53223872089796        0.16735223105635
C           -0.66694742411209       -0.59781895201026        0.45093318135088
O           -1.58322452236939       -1.15099487343665        1.09151775195879
N           -2.16379590413281       -2.25580024156365       -0.80160205212886
C           -3.40953177060787       -2.54257475652216       -1.04068247445495
H            4.23184423118210        1.67671975503123        0.67249772695592
H            4.20397621217013        1.28444773098200       -1.03855877791893
H            2.97465763116581        2.36908796748580       -0.36015184756373
H            3.91294991909890       -1.29115994131132        0.75050656328088
H           -1.80605890133868        2.59751829928763        0.17731865521757
H           -2.73680432427251        1.32569839592714       -0.67461954344356
H           -2.61143500607461        1.30229648556896        1.08570054787438
H           -2.93023222322622       -2.37783143072659        0.08150411783598
H           -3.52128135940148       -3.61170351122526       -1.18012347508380
H           -4.05358584595256       -1.72409044673920       -1.36228353283752
H            1.78668948324530       -2.60358211206195        0.86351518399387
25