25
 energy: 0.000000000000 xtb: 6.6.1 (8d0f1dd)
C            3.23720163006194        1.16630919979326        0.08434469647475
N            2.29877817382611        0.07527477071623        0.03981603040599
C            2.58028210190900       -1.21425402444508        0.03006176031096
N            1.43813958087363       -1.93419271955128        0.00098261760884
C            0.39035688448383       -1.05887472636071       -0.00790371836672
C            0.93510056364412        0.21347819449412        0.01709077491437
C            0.09450143893243        1.40504303904423       -0.00410947031874
O            0.49712751527797        2.54126714362870       -0.00342325688240
N           -1.25076640035757        1.06271879480407       -0.03085478223738
C           -2.21907211982101        2.15522099834493       -0.05001256985998
C           -1.81739487048744       -0.20012725993278       -0.04692818574614
O           -2.99983886758376       -0.37846417018721       -0.07008878229737
N           -0.92618586207120       -1.30210215599479       -0.03682761578324
C           -1.46982264913417       -2.64643102187190       -0.06029820460571
H            3.71247264356769        1.21471455160235        1.06488849150277
H            4.00791497605742        1.03430808813993       -0.67357694370751
H            2.69910007168542        2.09770118228144       -0.09130154882931
H            3.56654120610678       -1.63682992603973        0.04233140067262
H           -1.67107961066214        3.09322851271934       -0.02552706933167
H           -2.82428953597071        2.09428624779827       -0.95318082946668
H           -2.87644029173232        2.07745725625962        0.81450067533302
H           -1.17061996399332       -3.19584890659852        0.83242232437030
H           -1.14560257411436       -3.17511610292205       -0.95688275822323
H           -2.55549792440841       -2.55659984320617       -0.07459039797972
H            1.38130855184625       -2.94313852034425       -0.01389874181052
25
 energy: -3.272118124790 xtb: 6.6.1 (8d0f1dd)
C            3.24341630194086        1.17256442487811        0.07973316517008
N            2.30701521172080        0.09127901420955        0.03594996015944
C            2.60350816040060       -1.23467427998802        0.02481371934416
N            1.43518196326458       -1.94685378866504        0.00127139228483
C            0.39994022217935       -1.06609952949754       -0.00175060141867
C            0.92773911209411        0.21458405358944        0.02108555312245
C            0.09221370136058        1.38598245693544        0.00496253383295
O            0.49057210602041        2.55077227745767        0.00678773748790
N           -1.27417488823853        1.04602089306820       -0.04381814831610
C           -2.23015952851951        2.16270984287848       -0.06980272587452
C           -1.82576940382466       -0.21375295984844       -0.04174702533275
O           -3.02048984873115       -0.40579248382129       -0.05174658432084
N           -0.93003390210989       -1.31318411841721       -0.02492378851171
C           -1.45780610395978       -2.66056345143748       -0.04557067502929
H            3.72400071791982        1.21946635604045        1.06039554375856
H            4.01038180305230        1.03541595889620       -0.68410156203245
H            2.69773355999219        2.09719850947214       -0.09674141427804
H            3.58373037972292       -1.65578666274506        0.02980539119457
H           -1.65378038249242        3.07749695184379        0.05055689970869
H           -2.82913580831426        2.32558146060479       -1.00571616671908
H           -2.93728716585218        2.03880868922868        0.74698936784462
H           -1.15143772472888       -3.21024605104761        0.84678609438364
H           -1.12462955794200       -3.19082400675116       -0.94025628766632
H           -2.54358034787230       -2.57997421534741       -0.06144584057370
H            1.37506609085325       -2.95110073936473       -0.01448264207113
25
 energy: 6.838390665668 xtb: 6.6.1 (8d0f1dd)
C            3.24916694765409        1.17363027151873        0.07138062688699
N            2.31052816622815        0.10550433827728        0.02931913200753
C            2.62463032257073       -1.25577637321247        0.01665777200865
N            1.43056392549740       -1.95759223022412        0.00144328040728
C            0.41003179513058       -1.07713647495432        0.00805987052127
C            0.91336110655838        0.21451488807770        0.02639108542560
C            0.08635158964106        1.35732677537091        0.00757946210113
O            0.47268834156369        2.54454412784108        0.02169630398041
N           -1.31413873071408        1.03119456365214       -0.07766545771139
C           -2.24447294750688        2.18388122897759       -0.09695781895439
C           -1.83468020537055       -0.23082982018243       -0.03120104574647
O           -3.03429999451439       -0.45011159194229       -0.01380616530793
N           -0.93440563646562       -1.32640109892367       -0.00341742181532
C           -1.43754077697496       -2.68102216475934       -0.02163546645564
H            3.73948737743584        1.22336585769535        1.04992037823899
H            4.01309899688915        1.03437608304908       -0.69838257452200
H            2.69968211768854        2.09466647402509       -0.10499510484468
H            3.59947174295161       -1.67128175624692        0.00957230421644
H           -1.62838812574596        3.06058957734841        0.18842870335970
H           -2.80148668823120        2.67470773585424       -1.08238367479155
H           -3.04365452060178        1.96405978350853        0.62647668400559
H           -1.12233210710075       -3.23142253715515        0.86992151435656
H           -1.09209975752064       -3.21344019829829       -0.91358798820811
H           -2.52401610143212       -2.61909624080023       -0.04014639610247
H            1.37466783030592       -2.95922261632498       -0.01563410690891
25
 energy: 21.297803341631 xtb: 6.6.1 (8d0f1dd)
C            3.25327141888929        1.16688626703398        0.06515538309405
N            2.30981763993697        0.10537076985670        0.02428295053993
C            2.63180266172229       -1.27012765688558        0.00811819652241
N            1.42983674005156       -1.96624337858323       -0.00174385684852
C            0.41474897828612       -1.08797702317571        0.01595894991107
C            0.90433630864992        0.21035508368047        0.03138866341327
C            0.08049580574651        1.34407885986152        0.00680646228358
O            0.45988793531495        2.53643657344132        0.03964348035052
N           -1.34442304055852        1.03573602463730       -0.11130282111928
C           -2.25680730778129        2.21846567797380       -0.12074648431176
C           -1.84152972253576       -0.23833650526846       -0.01711430203316
O           -3.03924037579304       -0.48405615015240        0.02731261254617
N           -0.93531760974321       -1.33359167152672        0.01758304541328
C           -1.41678631035687       -2.69809332294359       -0.00032930980863
H            3.75165347048003        1.21789463321716        1.04082618268809
H            4.01481674868633        1.02811054116853       -0.70831360452190
H            2.70651795410527        2.09027692716736       -0.10857919129354
H            3.60747573396365       -1.68152256015629       -0.01449848932131
H           -1.63965811630772        3.05071411195365        0.30885724809465
H           -2.76057244459225        2.94221041501235       -1.12175388959645
H           -3.14306256637422        1.90993209287173        0.48912098729216
H           -1.09348978048743       -3.24874855255005        0.88970060226466
H           -1.05862984019703       -3.22919311600546       -0.88998924524629
H           -2.50437870466563       -2.66068809257059       -0.02168698831146
H            1.38144909149629       -2.96886134588591       -0.02166268585428
25
 energy: 31.267093511917 xtb: 6.6.1 (8d0f1dd)
C            3.25628223132524        1.15569661437379        0.06372911084080
N            2.30798484719159        0.09557249227273        0.02175244436687
C            2.62944731688949       -1.27671492068714        0.00260960188963
N            1.43287560476221       -1.97188834122616       -0.00687495592629
C            0.41582325739978       -1.09668540653464        0.01986135764540
C            0.90220575576835        0.20340621279186        0.03499689883164
C            0.07763645059683        1.34137939125565        0.00367484640811
O            0.45232990587612        2.52643849613641        0.05706329338422
N           -1.35973639011297        1.04729097000437       -0.13561587495288
C           -2.26888187954311        2.24464384279652       -0.13440582645622
C           -1.84459838751399       -0.23900148313026       -0.00083410885735
O           -3.03495510298925       -0.50256325363342        0.06659458219758
N           -0.93330651871619       -1.33541477556104        0.03291130338715
C           -1.39971098630212       -2.70884904357245        0.01317684544401
H            3.75819580540536        1.20534934123906        1.03746675306466
H            4.01649919389231        1.01857186634319       -0.71094841590825
H            2.71510096167892        2.08400462234172       -0.10634415232588
H            3.60873666657356       -1.68511813681700       -0.03679383843873
H           -1.68995369125113        3.02935838981177        0.37025333811103
H           -2.73967010402820        3.12437354034332       -1.12136579064013
H           -3.19532735737687        1.89533097091415        0.36966529788969
H           -1.07027072129026       -3.25827814071061        0.90219346584024
H           -1.02958780820223       -3.23533039114449       -0.87503128874811
H           -2.48773604294851       -2.69550589798017       -0.01106416879968
H            1.39283166085130       -2.97703835745524       -0.02963682210025
25
 energy: 35.609374211457 xtb: 6.6.1 (8d0f1dd)
C            3.25725465451966        1.14736430843542        0.05914913765639
N            2.30694513275457        0.08487779876751        0.01758091324454
C            2.62193568194789       -1.27276972485331        0.00287273186229
N            1.43753725768720       -1.97225123776546       -0.00782552471730
C            0.41368613527094       -1.10006227963765        0.01760565595401
C            0.90564141754727        0.19820947768123        0.03375412772658
C            0.07925354205603        1.34590416748465        0.00233257838114
O            0.45003538982549        2.52083147673441        0.06910066321958
N           -1.35646200456845        1.05429115584769       -0.14758413613077
C           -2.27510406101733        2.24906510455649       -0.13983922797306
C           -1.84468957412535       -0.23571630282858        0.00110189987754
O           -3.02724174427931       -0.50174132858767        0.08854878086006
N           -0.93089328208776       -1.33309697337895        0.03639274003679
C           -1.39436098117069       -2.71002220724549        0.02237242237405
H            3.75780610680980        1.19564433030444        1.03258809932813
H            4.01657156395039        1.00880155542442       -0.71499225497137
H            2.72003673599140        2.07850695510122       -0.11060907734562
H            3.60423619021212       -1.67955401577547       -0.04930789537225
H           -1.73962921929253        2.99532799170425        0.44356850598494
H           -2.70913518833587        3.22080645283333       -1.11739410987857
H           -3.22264270972881        1.86978751545122        0.26770755936645
H           -1.06220724849882       -3.25284513825136        0.91409998317849
H           -1.01855718497362       -3.23483013539654       -0.86352112552974
H           -2.48117761193274       -2.70830540468105       -0.00294999913573
H            1.40337566937475       -2.97919493975286       -0.02771855184936
25
 energy: 34.301923066901 xtb: 6.6.1 (8d0f1dd)
C            3.25822767252149        1.14401831481341        0.05558242288878
N            2.30816804569968        0.07897725626732        0.01409712613127
C            2.61645807811776       -1.26624291197353        0.00570502819498
N            1.43975424009021       -1.96995090471798       -0.00787994288124
C            0.41130786130354       -1.09830271810885        0.01290592525966
C            0.91043099985140        0.19755347362709        0.02972258880152
C            0.08437723328266        1.35153142196606        0.00166185751660
O            0.45416816922138        2.52149202189766        0.07752212963623
N           -1.34348850619998        1.05765375034127       -0.14554813013247
C           -2.27238605720919        2.24407301943043       -0.13747160138384
C           -1.84288771972620       -0.23062591580107        0.00199397351681
O           -3.02174497472567       -0.49131852838191        0.09805943606408
N           -0.92982457685577       -1.32923156578039        0.03378687372938
C           -1.39713047855976       -2.70608140779683        0.02485601739409
H            3.75660756225865        1.19182781382434        1.02941160761512
H            4.01732591429916        1.00362910514959       -0.71768433043056
H            2.72163221043197        2.07507074407577       -0.11527065462329
H            3.59908491207541       -1.67473889980974       -0.05343157293132
H           -1.78346864438072        2.97239886002346        0.48372194615812
H           -2.67925664945063        3.22904841101555       -1.10330995947758
H           -3.23073049837529        1.84719665510167        0.20238650281141
H           -1.06488942930621       -3.24485516948476        0.91857190142039
H           -1.02210300219115       -3.23251912059994       -0.85941696106269
H           -2.48305075530264       -2.70432944408827        0.00074883816332
H            1.40563306106612       -2.97724565881850       -0.02368712623152
25
 energy: 30.847691603476 xtb: 6.6.1 (8d0f1dd)
C            3.25910814942640        1.14435814387755        0.05166777881916
N            2.31001952805553        0.07821256768507        0.01121348469099
C            2.61467788774234       -1.26246843314828        0.00966740042934
N            1.43931164079544       -1.96799037718972       -0.00654910157231
C            0.40994092281370       -1.09449423961207        0.00947274505750
C            0.91319371517102        0.20004200157456        0.02543747314748
C            0.08761929048569        1.35598372552162        0.00041547402716
O            0.45847164174103        2.52623946576475        0.07898961732305
N           -1.33273799464381        1.05989358277620       -0.14429046962173
C           -2.26853339743864        2.24004920629337       -0.13836565942980
C           -1.84163698727610       -0.22566995929100        0.00029173300864
O           -3.02079850509584       -0.48122950438288        0.09920894811912
N           -0.93021018551925       -1.32557321891322        0.03083635246729
C           -1.40166718667487       -2.70125636562810        0.02686904086550
H            3.75654864553746        1.19235282022971        1.02574151280202
H            4.01810387696869        1.00187813163508       -0.72122971079293
H            2.72157549206141        2.07415847252669       -0.12041621840031
H            3.59586492808841       -1.67451790665477       -0.05471739490731
H           -1.81132430786321        2.95997776145726        0.53585055488716
H           -2.64642226606291        3.20859766362722       -1.09637466429329
H           -3.23390968457932        1.81953390820788        0.15231815152469
H           -1.06994196117951       -3.23789133630542        0.92194011424969
H           -1.02921225255377       -3.23096205078329       -0.85624244905101
H           -2.48757430589807       -2.69542471293804        0.00427561032350
H            1.40174798383443       -2.97477074415833       -0.01897642752635
25
 energy: 24.803143188281 xtb: 6.6.1 (8d0f1dd)
C            3.25968942681499        1.14599041355651        0.05132871363446
N            2.31140293378689        0.07955651448155        0.01028074436255
C            2.61408750762014       -1.26030173498385        0.01472657015222
N            1.43684689961628       -1.96588141802841       -0.00639686413407
C            0.40867251211956       -1.08919663511219        0.00706598766592
C            0.91435000090141        0.20409217923690        0.02214930746583
C            0.08818795772147        1.35958009146655       -0.00088881647170
O            0.46170184964341        2.53129823336879        0.07640887893840
N           -1.32422951698487        1.06312230114670       -0.13902523664452
C           -2.26479822281744        2.24015910069727       -0.13565597319654
C           -1.84092959576694       -0.22008603561217        0.00300889921947
O           -3.02183149737547       -0.47112260452683        0.09841801538652
N           -0.93154586807308       -1.32163526770389        0.02824423101485
C           -1.40568282517751       -2.69634647759473        0.02511194670570
H            3.75716207811721        1.19321788120538        1.02549497056304
H            4.01907487679996        1.00318498288596       -0.72132995373556
H            2.72102319115777        2.07476535481105       -0.12027887509849
H            3.59281528950156       -1.67742482082641       -0.05708303338386
H           -1.83817720294607        2.94726964807611        0.54769806069705
H           -2.61858327382088        3.15430761084528       -1.07233214937795
H           -3.21817667082688        1.81447801836971        0.12266525692101
H           -1.07451951189518       -3.23396097800914        0.91977816039275
H           -1.03571210934548       -3.22797241963255       -0.85809186050373
H           -2.49222833072501       -2.68616075387310        0.00380786904817
H            1.39361476989038       -2.97190458207266       -0.01807095347426
25
 energy: 21.202017495245 xtb: 6.6.1 (8d0f1dd)
C            3.26079304201682        1.14694700895131        0.04975411386026
N            2.31235177426032        0.08191445342565        0.00975781253805
C            2.61633241052030       -1.26314491004715        0.01774369652572
N            1.43436649055245       -1.96608519200027       -0.00576437248439
C            0.40958814947704       -1.08665741550255        0.00838214385814
C            0.91423205487405        0.20628959905138        0.02256345261807
C            0.08815103024594        1.36035009457619        0.00107890293308
O            0.46458140068658        2.53392599285378        0.07143280312482
N           -1.32285967431007        1.06675648443794       -0.13645739955143
C           -2.26509771690013        2.24671280272452       -0.13475637277825
C           -1.83942684769618       -0.21577965253308        0.00450667351737
O           -3.02262356396386       -0.46604160128643        0.09464097023747
N           -0.93226813442977       -1.31908006032403        0.02926640314616
C           -1.40686478585826       -2.69303076676789        0.02582029323872
H            3.75990980113250        1.19398430398735        1.02341960836053
H            4.01951776579856        1.00409375394400       -0.72395984250237
H            2.72155409901870        2.07549354528434       -0.12113253336762
H            3.59301580017972       -1.68242121559090       -0.06169159303431
H           -1.85125940196384        2.94602674011080        0.56531253874099
H           -2.58982628375774        3.12821173510329       -1.06354292480568
H           -3.23177900622257        1.80094243790859        0.10192343069150
H           -1.07570434441687       -3.23196239820215        0.91991094023943
H           -1.03828151405674       -3.22548322030768       -0.85784664281205
H           -2.49379430175190       -2.68136846259414        0.00516867576106
H            1.38760642450122       -2.97156545503105       -0.01849688190803
25
 energy: 18.725833763273 xtb: 6.6.1 (8d0f1dd)
C            3.26056606923738        1.14784588455585        0.05033713322963
N            2.31099390687686        0.08487723855644        0.01129143276156
C            2.61858889452488       -1.26705779695077        0.02253593107925
N            1.43182898995553       -1.96680082320779       -0.00407763617415
C            0.41055624982731       -1.08620450113187        0.01094943861751
C            0.91197774635764        0.20681361728715        0.02346519191552
C            0.08411997206153        1.35873970676403       -0.00189246320158
O            0.46259487017248        2.53363657271137        0.06050830262341
N           -1.32837268759076        1.06835470272898       -0.14321243916132
C           -2.27058996613044        2.25527874888759       -0.14072230577971
C           -1.83922511350937       -0.21479525936841        0.00117899225474
O           -3.02449593250987       -0.46718129737321        0.08578063284243
N           -0.93306233489160       -1.31862254812662        0.03051679463365
C           -1.40574609802657       -2.69232826491024        0.02669326169246
H            3.76152783443915        1.19515411425211        1.02341102559466
H            4.01894326942285        1.00537092240065       -0.72417529018644
H            2.72207855111780        2.07717844883092       -0.12016108163494
H            3.59396765859523       -1.68558074642899       -0.06597961737226
H           -1.85140734159402        2.94511306693691        0.58019150351756
H           -2.57598070994624        3.11568835141743       -1.05433568406258
H           -3.22695367343316        1.80395652457057        0.10476658314835
H           -1.07423902420337       -3.23175115038831        0.92060278199477
H           -1.03672089238283       -3.22463673706070       -0.85726878497405
H           -2.49287327331862       -2.68186117055915        0.00542947904308
H            1.38413770288447       -2.97215900222214       -0.01879928625427
25
 energy: 19.072350986881 xtb: 6.6.1 (8d0f1dd)
C            3.25993673851385        1.14738012733697        0.05155912322371
N            2.30919918138443        0.08545724781318        0.01295196598171
C            2.61898720174793       -1.26854861755039        0.02525029223513
N            1.43159886304692       -1.96733153859163       -0.00367802003016
C            0.41085509333420       -1.08794684148654        0.01221100167978
C            0.91071416755775        0.20522514033119        0.02474001133599
C            0.08193407808064        1.35693875366176       -0.00409221111932
O            0.45981818672357        2.53133960476331        0.05740236116476
N           -1.33297945187999        1.06719890974920       -0.14750261329692
C           -2.27448828244735        2.25931959317644       -0.14408466583501
C           -1.83946022014746       -0.21636498284130       -0.00111695043333
O           -3.02485530981701       -0.47058758150266        0.08320821618393
N           -0.93312572832575       -1.31954942112575        0.03128744820027
C           -1.40412962700969       -2.69355214113816        0.02687240182848
H            3.76150053035232        1.19489669930163        1.02433115283910
H            4.01797397497089        1.00508829722069       -0.72332318967282
H            2.72266824158891        2.07772493393344       -0.11904288673715
H            3.59480830624742       -1.68377181752695       -0.06979524911974
H           -1.84289128702752        2.94249043459065        0.57145123402143
H           -2.57504308808387        3.12618557547215       -1.04861130454157
H           -3.23055566951027        1.81370296301635        0.11774601394394
H           -1.07185741257061       -3.23259606756007        0.92075657640547
H           -1.03393052757975       -3.22487973491296       -0.85717368335676
H           -2.49101325963168       -2.68572970795865        0.00515401996191
H            1.38654996841835       -2.97306122600008       -0.01946714871559
25
 energy: 18.259635107350 xtb: 6.6.1 (8d0f1dd)
C            3.25930377690995        1.14670715009791        0.05228539958747
N            2.30763421485094        0.08513684209650        0.01422311173198
C            2.61778729127216       -1.26763617159642        0.03072006294672
N            1.43163734450812       -1.96692922613601       -0.00339807509330
C            0.40992105568814       -1.08863781157300        0.01133397708944
C            0.91059192609157        0.20422242921249        0.02440619381899
C            0.08117427265315        1.35715031601009       -0.00745187994391
O            0.45827145756683        2.53042090925300        0.05669125129589
N           -1.33317719103947        1.06599508432724       -0.15228080290968
C           -2.27637573177992        2.26118641595923       -0.14937845859187
C           -1.83987499075483       -0.21674735213977       -0.00395869346890
O           -3.02486272195697       -0.47048090021554        0.08205006042490
N           -0.93343932720221       -1.31940351776339        0.03038194397682
C           -1.40402683714700       -2.69378672306236        0.02684569823664
H            3.76057238614318        1.19428523582696        1.02499584203076
H            4.01710466867686        1.00357098352082       -0.72253553712232
H            2.72315431969432        2.07768586652613       -0.11898313437381
H            3.59409527482674       -1.67989297611165       -0.07495433017900
H           -1.84097603662657        2.93639361560078        0.56991980497720
H           -2.56777032015149        3.12668128709369       -1.03768076096010
H           -3.23292794009218        1.82051186299228        0.12267215952487
H           -1.07098739301182       -3.23165457663414        0.92106288245634
H           -1.03324563657599       -3.22516087256898       -0.85676976771528
H           -2.49065242457624       -2.68757472294540        0.00535078969608
H            1.38928322996898       -2.97301454559864       -0.01851384128867
25
 energy: 18.445539012420 xtb: 6.6.1 (8d0f1dd)
C            3.25896637983421        1.14642514057087        0.05226072648269
N            2.30729096159353        0.08437722230944        0.01425896862099
C            2.61654124572768       -1.26592291695213        0.03431384946261
N            1.43213388052845       -1.96645101083742       -0.00363997913886
C            0.40896054795753       -1.08881098122365        0.00942384793660
C            0.91087843501592        0.20404165782668        0.02333128013638
C            0.08158003729688        1.35774682573482       -0.00888827700863
O            0.45757294253898        2.53033742658200        0.05949632743013
N           -1.33202126343805        1.06456358277688       -0.15552188104144
C           -2.27582110938091        2.25922207960853       -0.15252377470561
C           -1.84076826720021       -0.21740054580495       -0.00491512151325
O           -3.02484350506763       -0.47057144778437        0.08428437721049
N           -0.93354907802897       -1.31950087892192        0.02926267624795
C           -1.40430480007895       -2.69425875043828        0.02679793563817
H            3.75948864659966        1.19411363659891        1.02516796126240
H            4.01696052695766        1.00249994639706       -0.72210014980689
H            2.72304031723962        2.07730156928129       -0.11962151516306
H            3.59310232934754       -1.67707581856623       -0.07719951112567
H           -1.84024850555064        2.93287313187657        0.56978651462781
H           -2.56572973988561        3.13215009447039       -1.03597247652303
H           -3.23301922990788        1.82128505937539        0.12531768662896
H           -1.07108163890082       -3.23119777252550        0.92141385878835
H           -1.03337792522665       -3.22603049597507       -0.85637671609929
H           -2.49081737425491       -2.68802183871732        0.00557840398281
H            1.39128085421985       -2.97266631349018       -0.01690111618336
25
 energy: 17.893792217903 xtb: 6.6.1 (8d0f1dd)
C            3.25901863431841        1.14662493114589        0.05205827648330
N            2.30765186314159        0.08423896597400        0.01391206773702
C            2.61625831539233       -1.26530555494321        0.03710283236683
N            1.43195546311914       -1.96614201729618       -0.00393275498340
C            0.40860246210507       -1.08811473894164        0.00814364614058
C            0.91107362430863        0.20467703638078        0.02249506497423
C            0.08184633177544        1.35835233335746       -0.00854667626924
O            0.45772434219320        2.53099764901741        0.06116139658801
N           -1.33091010911391        1.06457110850271       -0.15617475708941
C           -2.27482912534602        2.25844953020531       -0.15374772824310
C           -1.84114455436035       -0.21686090204252       -0.00454822978500
O           -3.02496215051745       -0.46958850617250        0.08580655262359
N           -0.93363879398049       -1.31908162556412        0.02856665135696
C           -1.40473870118511       -2.69387577804836        0.02656584865145
H            3.75938158348142        1.19429454812784        1.02504259633602
H            4.01717146555190        1.00252951420946       -0.72213847536427
H            2.72281333862010        2.07720147973110       -0.11986948657772
H            3.59229752922852       -1.67707112182502       -0.07903817866150
H           -1.84229836659481        2.93167345030674        0.57087980089436
H           -2.56206060538607        3.12730331976147       -1.03473164956035
H           -3.23252323530137        1.82005343065492        0.12379354953032
H           -1.07163751745632       -3.23076049905167        0.92124636173371
H           -1.03410486285414       -3.22598196399611       -0.85651050523773
H           -2.49133418940181       -2.68690523918956        0.00555779077056
H            1.39060192619838       -2.97225074813238       -0.01606009826792
25