72
 energy: 0.000000000000 xtb: 6.6.1 (8d0f1dd)
N           -1.47310934822924        2.74401318561852        2.22063942287560
C           -1.55658894218425        2.16490305624665        1.13274284460745
C           -2.74549225258129        2.05621251263064        0.23826250649470
C           -3.31377583855761        0.64333417511334        0.32332515650284
C           -4.30230195924506        0.24487112428158       -0.58026167086503
C           -4.85238808050968       -1.02286499940159       -0.53363593669082
O           -5.81420026757557       -1.48606047972767       -1.36157895357670
C           -6.39655692584623       -0.60827005826649       -2.29568495601309
C           -4.39972542350640       -1.94646120241305        0.44396933240983
O           -4.98748357557592       -3.16146026488900        0.41085995818162
C           -4.66362171172287       -4.10093865802695        1.40909140816864
C           -3.42072545213514       -1.54561399150247        1.33436558640148
C           -2.88302826362110       -0.26315802838497        1.27400162590187
C           -2.19303818453636        2.30467021687947       -1.18742988123374
C           -1.26651549989641        1.17243380322503       -1.65249445018642
C            0.01082525039567        1.09745464658138       -0.89354811789923
N            0.61779399208289       -0.02034948241203       -0.57705527866251
C            2.00145228921113       -0.02376006609561       -0.15611401051620
C            2.92554961797610       -0.53865287672537       -1.27700100652360
C            4.35756883501756       -0.43050761225877       -0.83075552032494
C            5.07346182539911        0.73206415878124       -1.03980975472950
C            6.38628045899965        0.84224449235903       -0.60344828301384
C            7.00047329721665       -0.20824758267940        0.05722314949100
O            8.26703733840855       -0.21011315050632        0.52410948507466
C            9.06912311989339        0.92943609656965        0.31863060963839
C            6.27040022445068       -1.40439766990411        0.28033468609137
O            6.94830004375713       -2.38012947787858        0.92752007684741
C            6.31537376337817       -3.61583233633369        1.15217722400438
C            4.96302840674480       -1.49347485723979       -0.16064431849589
C           -0.05511211878686       -1.29906259857679       -0.62085692079872
C           -3.86758072907722        3.07992629005348        0.58498065642721
C           -4.49286201346546        2.77383518785172        1.94313307512182
C           -3.39165211343248        4.52917708609625        0.54797528556046
H           -4.66030069703099        0.94509076131725       -1.31640581036773
H           -6.85037992114187        0.25803164586058       -1.80468862056629
H           -7.17287509152171       -1.18600121846629       -2.79318183475679
H           -5.66836870040540       -0.26952968819383       -3.04040283452035
H           -4.88416765986127       -3.71589494995018        2.40913564538747
H           -5.29223619720187       -4.96637504833431        1.20969248126828
H           -3.61139846644506       -4.39919876145526        1.35529370415983
H           -3.07077825100221       -2.21868786295666        2.10002682176568
H           -2.14562774333496        0.02067850888151        2.01001363031684
H           -3.02188903413801        2.38238034416975       -1.88813562572432
H           -1.65198546223364        3.25146730843841       -1.20556295755141
H           -1.81103391047759        0.23006526775522       -1.62116316669324
H           -0.99335697743926        1.37490224954061       -2.69443281971844
H           -0.67628070635666        1.65183902374723        0.61785732877701
H            0.63525847086258        1.98466388206871       -0.92314029755375
H            2.11132572081740       -0.65949698961381        0.72532619960637
H            2.30680494458141        0.98978260887088        0.11078973822125
H            2.76694224489122        0.06750735773687       -2.17075272340394
H            2.67954606229959       -1.57455642411728       -1.51167757545099
H            4.62170041431221        1.56295626549351       -1.56123593485311
H            6.92357738865082        1.75715832247601       -0.79119604059515
H            8.65159193263071        1.81001840117181        0.81701562739969
H            9.20136256512460        1.14042868409438       -0.74698998879646
H           10.03428931104811        0.69003246578081        0.76064945022918
H            7.05567240429544       -4.23621211097668        1.65347581279537
H            5.43848051513375       -3.50813590722545        1.79970582482858
H            6.02060097762632       -4.09420535105165        0.21253284608183
H            4.40102799328555       -2.40127288651695       -0.00490198294521
H           -0.22071301762289       -1.61775598610935       -1.65116024301020
H           -1.01972267469312       -1.24102728946113       -0.10935207845464
H            0.55899959333766       -2.04486104898380       -0.12333731565713
H           -4.63991918782192        2.95501120214274       -0.18098089750912
H           -3.76095251366987        2.90314731895452        2.73380846416528
H           -4.87457659255110        1.75695657819473        1.97884621460846
H           -5.31925601899505        3.45579242388173        2.12325583951056
H           -2.60025614255587        4.69225089676674        1.27368930043085
H           -3.03987434616939        4.81897697030947       -0.43870979129779
H           -4.22191779840287        5.18069696155015        0.80616701440619
H           -0.59832439338922        2.77744720721660        2.72959009765665
72
 energy: -2.136247736336 xtb: 6.6.1 (8d0f1dd)
N           -1.51376515567615        2.75544774651355        2.25062427287487
C           -1.57001386627405        2.14253160491087        1.16226337352379
C           -2.75117879389980        2.05894162518920        0.24917165699392
C           -3.31914132003730        0.63723026212449        0.33254486530638
C           -4.30703973475896        0.23028378803532       -0.56883528434477
C           -4.85381165172554       -1.03964562041870       -0.52564571903878
O           -5.82190002445299       -1.50544155663856       -1.35592208811331
C           -6.39722443780935       -0.62704284084822       -2.29167587609720
C           -4.40057445861166       -1.96450148498888        0.44618750155520
O           -4.99348138730657       -3.18515363944500        0.41284633008935
C           -4.66481548021075       -4.12457075916604        1.40740756841785
C           -3.42026237012286       -1.56446410348920        1.33377648981258
C           -2.88496630368058       -0.27953572004058        1.27538573864802
C           -2.19292568728729        2.28340111122315       -1.18012826432038
C           -1.26501699835847        1.16063268742312       -1.66999345255369
C            0.01078293461649        1.10257850424366       -0.90255789735615
N            0.63738063200740       -0.05454398770356       -0.57340562402440
C            2.01283779903971       -0.04402860585254       -0.16594747708863
C            2.94265285833257       -0.54830298603581       -1.28730105277137
C            4.36974280971816       -0.43966131794766       -0.84550006805358
C            5.08436220749855        0.72565900602033       -1.04840485372536
C            6.39414275209382        0.83796459959286       -0.60634765684783
C            7.00684722494440       -0.21215584473547        0.05570054767771
O            8.27976553086207       -0.21352147250340        0.52772112702915
C            9.07525725274753        0.92806908407822        0.32282796318466
C            6.27865156363306       -1.40684695615439        0.27714979517190
O            6.95941154739034       -2.38553348482204        0.92864193974377
C            6.32396706463628       -3.61906569508165        1.15123225155772
C            4.97481140243868       -1.49970374921289       -0.16909290637998
C           -0.03936824798484       -1.32316777818494       -0.62781276017887
C           -3.84146200887514        3.13766318455170        0.58238959525683
C           -4.50343474589334        2.78959490434778        1.91974515788776
C           -3.43569580459589        4.65508631523305        0.56777720371389
H           -4.66564067736830        0.92966991686267       -1.30525040757621
H           -6.85226383266165        0.24092136609623       -1.80382144688495
H           -7.17178842003000       -1.20429822085124       -2.79361743708625
H           -5.66460697018900       -0.28821531179614       -3.03210142891139
H           -4.88055779912527       -3.74180673366598        2.40998499665589
H           -5.29459739892238       -4.99008000548285        1.20912404367045
H           -3.61264037957535       -4.42303005550560        1.34993384030950
H           -3.06550889119949       -2.24292956762660        2.09448936513238
H           -2.13798548949807       -0.00329913640942        2.00362739519899
H           -3.02259975833448        2.36912601988050       -1.88185249130217
H           -1.64669719810846        3.22735726791411       -1.19623135373463
H           -1.80266645705245        0.21392104016387       -1.62091723434920
H           -1.02212731505403        1.35855028015388       -2.72239009831507
H           -0.68511756902132        1.64440853327375        0.66283026335056
H            0.64341287514090        1.97760183023672       -0.95489537648724
H            2.12904822030078       -0.67449847187636        0.71947549459110
H            2.30543778010032        0.97489150399620        0.09959972246310
H            2.77529667808872        0.06082453992611       -2.17722360784160
H            2.69223315167190       -1.58306661231424       -1.52238945363259
H            4.63066377453763        1.55618922217186       -1.56843216398723
H            6.93155714983591        1.75384277361104       -0.79266953717377
H            8.65359250361366        1.80842370381653        0.81915797243659
H            9.20928999613436        1.14016118554418       -0.74292129736240
H           10.04019784059741        0.69166280875056        0.76751486879379
H            7.06276573951267       -4.23960677500137        1.65543133533581
H            5.44439114280203       -3.51100948612630        1.79524126360729
H            6.03071532120333       -4.09846403687995        0.21122098359636
H            4.41135197315455       -2.40671420660750       -0.01214741304948
H           -0.20783142103694       -1.63956445005959       -1.66158398873111
H           -1.00542753533187       -1.26352160854957       -0.11814929939219
H            0.57368466030462       -2.06905515877335       -0.13021003348781
H           -4.59295342593325        3.03266636696979       -0.19470302554760
H           -3.78391187629786        2.92556130259756        2.71961754682257
H           -4.87496643281457        1.76590712331017        1.96260509343835
H           -5.34343905120015        3.45935693026308        2.08431253328327
H           -2.65124642377551        4.83492431617138        1.29609701882072
H           -3.07760953198863        5.01154754665174       -0.40251802310849
H           -4.27538988428486        5.30687037952829        0.82876627797577
H           -0.63870137371117        2.76586883149118        2.76265923738782
72
 energy: 6.175040144873 xtb: 6.6.1 (8d0f1dd)
N           -1.56970125899658        2.76241795491126        2.28127800377623
C           -1.57717180028992        2.12844030950542        1.19059134660766
C           -2.75348739957150        2.07029044248366        0.26076015388322
C           -3.33187355317998        0.63634230680720        0.34845504930648
C           -4.31559240178006        0.21321573240720       -0.55272738719994
C           -4.85509565251772       -1.06138414516538       -0.51524659604524
O           -5.83111721846024       -1.53011467487227       -1.34725402035645
C           -6.39774038429323       -0.65278383249353       -2.28608800094702
C           -4.40123617768048       -1.98841360100733        0.44891550542923
O           -5.00027816614522       -3.21545366702778        0.41635959403056
C           -4.66594985559458       -4.15630573691347        1.40492716279238
C           -3.41672098010079       -1.58887205207943        1.33081538315978
C           -2.88732888810312       -0.29943850436490        1.27586190119489
C           -2.19096886833443        2.26150563641418       -1.17324785803549
C           -1.26520789147212        1.13855106433634       -1.67772606541305
C            0.01305907377498        1.09881254106489       -0.91513557331273
N            0.65619535436771       -0.09040892633165       -0.57344546564349
C            2.02386887951477       -0.06428828344104       -0.17995214786279
C            2.96271793418868       -0.56049346372014       -1.30054502892719
C            4.38465974929955       -0.45071669097112       -0.86046475371582
C            5.09901944638484        0.71607694872355       -1.05899787872739
C            6.40625607253958        0.83140684077922       -0.61096006832414
C            7.01593777324951       -0.21771767231328        0.05289798423670
O            8.29480982064779       -0.21753470315826        0.53137153526584
C            9.08296398838167        0.92614624752308        0.32849096181666
C            6.29075524234826       -1.41050034336243        0.27196990835172
O            6.97371863097238       -2.39231723445543        0.92900314359333
C            6.33569215822864       -3.62323891797146        1.14960886583732
C            4.98999132423075       -1.50772310333713       -0.18002610820748
C           -0.02073980028738       -1.35017041384779       -0.64020699678305
C           -3.81842136481671        3.20845576964855        0.57594016467250
C           -4.52007519746192        2.81977297622358        1.89090846175238
C           -3.48191102292067        4.81226092263249        0.59809207515651
H           -4.67656517747298        0.91077373281781       -1.28940071952693
H           -6.85582937523690        0.21687074707678       -1.80303865070037
H           -7.16952613988864       -1.22979747324258       -2.79389934180869
H           -5.65952152018390       -0.31416453673804       -3.02117843831882
H           -4.87568633991228       -3.77836896679746        2.41134020026836
H           -5.29745705167820       -5.02184201849196        1.20802793717819
H           -3.61429086250990       -4.45670131320116        1.34226416457569
H           -3.05685101253039       -2.27389592234669        2.08583658554625
H           -2.12909286213939       -0.03618566243067        1.99734963904793
H           -3.02376287971342        2.35228923223091       -1.87313184774954
H           -1.64085693715700        3.20330429153480       -1.18661918176105
H           -1.79381128569496        0.18638811112070       -1.61618853404068
H           -1.05595501360682        1.33362412023550       -2.74113522212876
H           -0.69271471880955        1.63019543361636        0.72520823721893
H            0.65626739625964        1.95843603356051       -0.98707879836272
H            2.15340194169596       -0.69211250879735        0.70902018566472
H            2.30643702372390        0.95825660527703        0.08610100770799
H            2.78761900682094        0.05164423079208       -2.18690507019153
H            2.70930771653239       -1.59451936424663       -1.53847086091742
H            4.64324269581908        1.54571180408021       -1.57866388174706
H            6.94280130075428        1.74892714234428       -0.79464602993724
H            8.65673985157154        1.80634269682470        0.82230942482564
H            9.22092009023921        1.13982380510209       -0.73709255571282
H           10.04763376723199        0.69400791388097        0.77693982836470
H            7.07235314160831       -4.24381562271087        1.65783891267628
H            5.45287469590252       -3.51516548065068        1.78941007492000
H            6.04541049773978       -4.10482205525787        0.20930475140194
H            4.42520902603811       -2.41414286178241       -0.02281906718612
H           -0.19026430840410       -1.66880483692985       -1.67619939887288
H           -0.98813654036713       -1.29580438246540       -0.13197216708314
H            0.59244046865605       -2.09727817237317       -0.14216150896685
H           -4.53519223807959        3.13905760457494       -0.22424242468010
H           -3.81869281765914        2.96100584623577        2.70534251017263
H           -4.87197279078180        1.78508432189636        1.93370657982640
H           -5.38083820434458        3.46734269472701        2.03352646938691
H           -2.71328848842962        5.02842743740932        1.33417865794895
H           -3.12783340802951        5.25833142682211       -0.35356330121063
H           -4.34752537927741        5.44938901287592        0.85974185427443
H           -0.69412203792870        2.74565897887328        2.79922326099564
72
 energy: 21.196723460208 xtb: 6.6.1 (8d0f1dd)
N           -1.62374929430024        2.75565322321282        2.31144614708320
C           -1.58750375067221        2.12169501122884        1.21714526927657
C           -2.75678532746537        2.08308783575763        0.27217095281358
C           -3.34514070396674        0.63537332573355        0.36459407196533
C           -4.32539673098208        0.19739094473659       -0.53617695112471
C           -4.85777050287430       -1.08237396028136       -0.50423023879159
O           -5.83804914746652       -1.55331319437237       -1.33693357545221
C           -6.39811228982577       -0.67954004221927       -2.28045996253418
C           -4.40218003473963       -2.01315450359342        0.45242441264218
O           -5.00446642368830       -3.24391048700582        0.42045694787980
C           -4.66642885779495       -4.18921216394996        1.40210476752328
C           -3.41185042817671       -1.61242020613072        1.32761232401464
C           -2.88887547370490       -0.31830135965640        1.27587871382629
C           -2.18950854970831        2.24115277996919       -1.16545405794733
C           -1.26765312210137        1.11380038906942       -1.67799402842919
C            0.01726124331684        1.08404785146064       -0.93190552998241
N            0.66922236686608       -0.11928883235688       -0.57850356735184
C            2.03479793582570       -0.08261163712005       -0.19347657002687
C            2.98038795765723       -0.57260719544611       -1.31495706423702
C            4.39991079852847       -0.46130475938938       -0.87336115552267
C            5.11419315623525        0.70643291402467       -1.06946268012717
C            6.41945944372516        0.82485780104842       -0.61624422226448
C            7.02692291226852       -0.22351428275835        0.04996527781222
O            8.30787576891440       -0.22101680055717        0.53399920457990
C            9.09112436744754        0.92448737588908        0.33445039162488
C            6.30419231262630       -1.41584536686547        0.26655811881002
O            6.98725532238846       -2.39858166430262        0.92807874415631
C            6.34815855795939       -3.62794725183144        1.14758387440018
C            5.00545771340265       -1.51662193558271       -0.19067962468265
C           -0.00218023101725       -1.37758947910006       -0.65385637818773
C           -3.79760941616540        3.28329076320384        0.57318972109646
C           -4.53934188454301        2.85746675235480        1.86041259856291
C           -3.52451435660090        4.97377998665242        0.62990599441927
H           -4.69069811571039        0.89264026292124       -1.27265528397394
H           -6.86043488522785        0.19114673669293       -1.80270292717699
H           -7.16634191292729       -1.25727573068616       -2.79371227249244
H           -5.65448379184240       -0.34157994207814       -3.01043057116509
H           -4.87041973836014       -3.81757029738334        2.41249105281378
H           -5.30007579809890       -5.05423322419862        1.20581367877254
H           -3.61580344880982       -4.49281293007531        1.33371541616458
H           -3.04594225870957       -2.30363269250408        2.07579550421075
H           -2.12054325522455       -0.06932332293985        1.99245718046881
H           -3.02346946413774        2.33372398144285       -1.86421397226396
H           -1.63365497936172        3.17923912542224       -1.18112444063476
H           -1.78847354106222        0.15794109813017       -1.60821358572982
H           -1.08528652900622        1.30608249500743       -2.74982564614634
H           -0.70120789935809        1.61960607663686        0.78471596017872
H            0.66737571514942        1.93483544283603       -1.01379340393399
H            2.17766752245769       -0.70957890953374        0.69695287810115
H            2.31057207240932        0.94173679834371        0.07247881486450
H            2.80181017299445        0.04195885448839       -2.19893040221960
H            2.72751012933872       -1.60644861484898       -1.55600362375761
H            4.65715520731084        1.53498574135603       -1.58991060756659
H            6.95448383790815        1.74378832553053       -0.79735457505404
H            8.66041099919423        1.80417946464615        0.82596973216004
H            9.23374670627570        1.13958940669315       -0.73064716620585
H           10.05522508668215        0.69654935471036        0.78703350063936
H            7.08263518732235       -4.24805631277118        1.66009127322635
H            5.46227247209048       -3.51971492412572        1.78330991080208
H            6.06160001533888       -4.11185401336883        0.20705596610520
H            4.44028866356362       -2.42293675979803       -0.03427659870611
H           -0.17017387643873       -1.69830057699971       -1.69092895920440
H           -0.97086445079302       -1.33086900496408       -0.14699857218796
H            0.61233413475962       -2.12582410619895       -0.15585480274693
H           -4.47475414790931        3.25192563733067       -0.25769525371334
H           -3.85999091623833        3.00335653752039        2.69221389914687
H           -4.86705728319363        1.81086660711517        1.89730045167077
H           -5.42173472612899        3.47878885609947        1.98059654427527
H           -2.77810357009219        5.22605114366490        1.37753252898443
H           -3.18063793526529        5.49624725487560       -0.30091433589449
H           -4.42101979243764        5.58540056495378        0.89140750382175
H           -0.75112014095049        2.72530153630804        2.83745981100303
72
 energy: 39.202295658997 xtb: 6.6.1 (8d0f1dd)
N           -1.67099074147008        2.73925476398464        2.33972713333559
C           -1.60121190730451        2.11920900782610        1.24144844147806
C           -2.75960417894514        2.09296638773312        0.28230502722356
C           -3.35726117322971        0.63191548986012        0.37974009639551
C           -4.33552259700789        0.18260793098376       -0.52007793127274
C           -4.86170657146068       -1.10199736902707       -0.49337358307803
O           -5.84279069612491       -1.57434560096680       -1.32558833817039
C           -6.39852801928321       -0.70578310835101       -2.27515732607856
C           -4.40324383641648       -2.03772489174796        0.45661981146286
O           -5.00598400669528       -3.26935217129347        0.42466035429636
C           -4.66619881257109       -4.22170452961864        1.39911283004681
C           -3.40646933905803       -1.63434006040140        1.32452726154984
C           -2.88973871846760       -0.33578286450961        1.27626833295861
C           -2.18823037386048        2.22215560147356       -1.15688606748323
C           -1.27155052888509        1.08777952789562       -1.67356007506889
C            0.02362316152957        1.06005799802088       -0.95081269704417
N            0.67761432424694       -0.14134953794966       -0.58643327033368
C            2.04605165225053       -0.09906798002411       -0.20649275715920
C            2.99542524302522       -0.58423722924552       -1.32954242473563
C            4.41488238767589       -0.47112592923462       -0.88470778303053
C            5.12884803851319        0.69726374816901       -1.07945135171086
C            6.43251618481176        0.81847215036711       -0.62180698148853
C            7.03906657089660       -0.22907224566423        0.04707257312090
O            8.31859119338877       -0.22395326205588        0.53557972165896
C            9.09946242308714        0.92330950099357        0.34036194734893
C            6.31784046391890       -1.42236505287784        0.26122331019963
O            6.99953505777005       -2.40392376387419        0.92587337831213
C            6.36077295393521       -3.63302610944384        1.14516552571381
C            5.02042571550936       -1.52562371255436       -0.20073024770289
C            0.01588454528450       -1.40476585197244       -0.66769285961900
C           -3.78178883394811        3.35340708936518        0.57359241280171
C           -4.56025293456718        2.89895143388972        1.82919377633417
C           -3.56435751169510        5.13766916153489        0.66104017803107
H           -4.70678005905192        0.87544078312450       -1.25572234356362
H           -6.86572374260934        0.16536533749889       -1.80289118986139
H           -7.16252851562146       -1.28542281439973       -2.79293129641767
H           -5.64986702076031       -0.36885181155757       -3.00036029826286
H           -4.86484828708943       -3.85701254539287        2.41319825362070
H           -5.30254072421804       -5.08532992117533        1.20217249565544
H           -3.61702983701378       -4.52921721743054        1.32461299980274
H           -3.03386603790523       -2.33111352497267        2.06523056891936
H           -2.11259586997215       -0.10109398444207        1.98879858117350
H           -3.02213666893907        2.31420444357061       -1.85522798790335
H           -1.62513354260063        3.15543988139806       -1.17884653277498
H           -1.78664324197315        0.12977941953121       -1.59801846472336
H           -1.11026267773814        1.27814516772622       -2.75108886350518
H           -0.70874796150139        1.61213388578244        0.83872832369996
H            0.67496654760210        1.90956054354960       -1.03466469764136
H            2.19842987324061       -0.72617251084791        0.68317987045964
H            2.31670715942067        0.92606324930268        0.05908971853325
H            2.81683377588283        0.03239061816379       -2.21185991864688
H            2.74584435636522       -1.61818677889209       -1.57369010771574
H            4.67149236780320        1.52477853185637       -1.60138070960250
H            6.96592819749391        1.73852722438017       -0.80063615729624
H            8.66427191877962        1.80202204083703        0.82991687137226
H            9.24692095512638        1.13950083424710       -0.72399485521487
H           10.06248012651577        0.69881298609644        0.79731653663498
H            7.09329602901095       -4.25203276938574        1.66192300984667
H            5.47208800265174       -3.52448646373466        1.77705429087356
H            6.07831783062084       -4.11916001806149        0.20447829651716
H            4.45582546456883       -2.43239987181963       -0.04589414980061
H           -0.14880110293211       -1.72598301743485       -1.70532674366123
H           -0.95388901137999       -1.36663740408495       -0.16206143411303
H            0.63316923659769       -2.15256355600318       -0.17036700925256
H           -4.41360533060298        3.36494598501984       -0.29158485256634
H           -3.90599252586941        3.04954443705944        2.68028492576451
H           -4.86157107482209        1.84137625741794        1.85845153226946
H           -5.46300138295006        3.49264970670549        1.92659521034907
H           -2.84368526931690        5.41814167195075        1.42286004890491
H           -3.23254903864622        5.71646337871239       -0.24740079316807
H           -4.49026716995350        5.71797478789013        0.92077446756882
H           -0.80771608618809        2.70621628860360        2.88057051789470
72
 energy: 58.336779754828 xtb: 6.6.1 (8d0f1dd)
N           -1.71111444736233        2.71784520342527        2.36459658229738
C           -1.61618401414270        2.11649930408133        1.26296724350909
C           -2.75978489826674        2.09639510570728        0.29020257906673
C           -3.36644263688167        0.62449222666963        0.39259670624917
C           -4.34508661660321        0.16863706516491       -0.50521621018806
C           -4.86642703126599       -1.11981121480188       -0.48311975387896
O           -5.84610854662451       -1.59294327258537       -1.31381130389426
C           -6.39907948119866       -0.73027779336108       -2.27033535653557
C           -4.40413207613250       -2.06087397608210        0.46133512341552
O           -5.00539363632313       -3.29123404795830        0.42862343607491
C           -4.66530618227971       -4.25220083551572        1.39610918990576
C           -3.40128842831236       -1.65431464066276        1.32197935988537
C           -2.88942125894115       -0.35223606563884        1.27716853529857
C           -2.18637866493914        2.20437840726730       -1.14786240690916
C           -1.27577463061012        1.06146602769191       -1.66631295654570
C            0.03227878964225        1.02927773886261       -0.97022449534103
N            0.68264384944640       -0.15744364092044       -0.59536624995063
C            2.05676754741364       -0.11353521982559       -0.21908887350094
C            3.00783150938442       -0.59484063877641       -1.34319478579345
C            4.42854519346627       -0.47986171254570       -0.89454752937151