25
 energy: 0.000000000000 xtb: 6.6.1 (8d0f1dd)
C            3.23720132972391        1.16630909158653        0.08434468864950
N            2.29877796055224        0.07527476373246        0.03981602671198
C            2.58028186251803       -1.21425391179017        0.03006175752192
N            1.43813944744728       -1.93419254010258        0.00098261751768
C            0.39035684826767       -1.05887462812143       -0.00790371763344
C            0.93510047688824        0.21347817468824        0.01709077332874
C            0.09450143016486        1.40504290868848       -0.00410946993748
O            0.49712746915594        2.54126690785742       -0.00342325656480
N           -1.25076628431515        1.06271869620815       -0.03085477937476
C           -2.21907191394203        2.15522079838987       -0.05001256521996
C           -1.81739470187490       -0.20012724136556       -0.04692818139228
O           -2.99983858926755       -0.37846413507442       -0.07008877579474
N           -0.92618577614240       -1.30210203518959       -0.03682761236648
C           -1.46982251276835       -2.64643077634382       -0.06029819901142
H            3.71247229913541        1.21471443890471        1.06488839270555
H            4.00791460421487        1.03430799217987       -0.67357688121503
H            2.69909982127087        2.09770098766290       -0.09130154035862
H            3.56654087521359       -1.63682977417947        0.04233139674524
H           -1.67107945562430        3.09322822573871       -0.02552706696334
H           -2.82428927394145        2.09428605349656       -0.95318074103337
H           -2.87644002486466        2.07745706351925        0.81450059976605
H           -1.17061985538665       -3.19584861009707        0.83242224714061
H           -1.14560246782873       -3.17511580834413       -0.95688266944647
H           -2.55549768731684       -2.55659960601237       -0.07459039105944
H            1.38130842369251       -2.94313824728853       -0.01389874052104
25
 energy: -5.050286882851 xtb: 6.6.1 (8d0f1dd)
C            3.24985380537724        1.18346614978393        0.08969170146922
N            2.31278116620438        0.11008591704236        0.03540608710006
C            2.61848488607548       -1.23245954338504        0.03787122073939
N            1.43957765027124       -1.93137752163907        0.00790795862510
C            0.40639036895132       -1.06638271171367       -0.01250716015108
C            0.92369910765299        0.22703949472247        0.00718414368992
C            0.10758706735382        1.37301496723523       -0.01653525556744
O            0.47144261696646        2.55554845407071       -0.01715657015958
N           -1.28714230696132        1.02084589677761       -0.03749438130504
C           -2.21517936412178        2.13936071466100       -0.05772738618692
C           -1.83213666974648       -0.23463618505250       -0.04721009111870
O           -3.02380947264472       -0.48234814572081       -0.06104489793901
N           -0.93695031253586       -1.31827807575251       -0.03973555720936
C           -1.53002593271962       -2.63610802661251       -0.05748068208229
H            3.73235513275030        1.22860620276191        1.07117656389744
H            4.02079732898887        1.05263019489561       -0.67349929029490
H            2.71013612380859        2.11343946816247       -0.08224338768442
H            3.59628008981551       -1.64760194272881        0.05519993807939
H           -1.63925550794026        3.06498680485691       -0.02796824140621
H           -2.81260666204450        2.10791000578558       -0.96764305020260
H           -2.87187536639018        2.08862047251330        0.80811336567436
H           -1.12776964674128       -3.23362203633475        0.75757302308245
H           -1.28379332777018       -3.14059775654564       -0.98908257676153
H           -2.63411799068079       -2.53537680519973        0.03395458480312
H            1.39167941837491       -2.93393215263393        0.00345751863041
25
 energy: -0.539680149661 xtb: 6.6.1 (8d0f1dd)
C            3.25917528796343        1.19462379515434        0.09337949860308
N            2.32094335482003        0.12001649642527        0.03528220893475
C            2.63594583661716       -1.22393556881115        0.04600514620353
N            1.45837725190393       -1.92501992286973        0.01580234001379
C            0.41284627607765       -1.07378960627133       -0.01629611327131
C            0.92663766117876        0.22673127248554       -0.00386777438679
C            0.09595687607799        1.35481676743561       -0.03074491603337
O            0.44047988733971        2.54463498812316       -0.03649188694072
N           -1.30958846166121        0.98850897420679       -0.04508684273374
C           -2.21058614463312        2.12922269513854       -0.06645813419947
C           -1.85132875558885       -0.27606158766165       -0.04760601337344
O           -3.03344202231363       -0.58142506757930       -0.05410970671869
N           -0.93835227754813       -1.33942931255493       -0.03401669837202
C           -1.58186110117336       -2.63882278393934       -0.04848857862547
H            3.74706848423358        1.23795103502326        1.07355482378439
H            4.03094709041135        1.06783861944160       -0.67125237237879
H            2.72314111831668        2.12755003122829       -0.07355024655627
H            3.61530874254266       -1.64102363005146        0.07144140822328
H           -1.61392358054609        3.04410526504655       -0.03066390265724
H           -2.80014091099804        2.12279721041654       -0.98125486366074
H           -2.86695901942568        2.10046398229380        0.79924659642461
H           -1.08444503520927       -3.27942948484641        0.67571913022810
H           -1.42516321048259       -3.10460576314261       -1.01871902932618
H           -2.69504255098457       -2.53304558944225        0.15975070043947
H            1.41703818375614       -2.92712703652246        0.01815739647943
25
 energy: 6.890007707939 xtb: 6.6.1 (8d0f1dd)
C            3.26873663165775        1.20522648022690        0.09604670753106
N            2.32939544823119        0.12867142359028        0.03544864484317
C            2.65286398611999       -1.21633080415755        0.05733246325767
N            1.47683568349556       -1.92118137342462        0.02537470354476
C            0.41769154866365       -1.08570373854902       -0.01765163246043
C            0.93096353379261        0.21946630629345       -0.01195607870716
C            0.08482694612929        1.33151547685404       -0.04596209201727
O            0.41373516987313        2.52637571432928       -0.05764611240295
N           -1.33364331531886        0.95569602333816       -0.05317827114472
C           -2.20572661683704        2.12005274141093       -0.07518432208425
C           -1.87804096946669       -0.31535124227873       -0.05394965138460
O           -3.04776441800996       -0.67721701924784       -0.05891111414791
N           -0.94356972284181       -1.36271100268919       -0.02616095066822
C           -1.63096545672751       -2.65077533271337       -0.03472495317697
H            3.76150194082996        1.24842421598285        1.07490680474175
H            4.04209280123238        1.08103628940414       -0.66883945798801
H            2.73766633021358        2.14142486493507       -0.06822217112373
H            3.63405844328388       -1.63326224113591        0.09298108440013
H           -1.58910769626503        3.02362275000883       -0.03078014618774
H           -2.78579093409763        2.13933589119984       -0.99514206600342
H           -2.86379684688518        2.11213361886865        0.78885935175109
H           -1.04408525190248       -3.32940448373724        0.58233674366921
H           -1.56695534629498       -3.06693019599749       -1.03964584124381
H           -2.74692041253216       -2.55853724198626        0.28423912263068
H            1.44456324882846       -2.92289535665945        0.03243020508859
25
 energy: 15.828460359535 xtb: 6.6.1 (8d0f1dd)
C            3.27835082018498        1.21597440009996        0.09997504623368
N            2.33901850862801        0.13671289185364        0.03633534513810
C            2.67079605845576       -1.20809626995098        0.06745804084880
N            1.49697864313400       -1.91785934395216        0.03686607508545
C            0.42359264866102       -1.10027673656130       -0.00958870754118
C            0.93619501181860        0.21008586743970       -0.01172871647505
C            0.08538466378006        1.31646803604301       -0.05924919040373
O            0.40165639235840        2.51082481532330       -0.07128292063322
N           -1.35137391532021        0.92745284859927       -0.06414674939815
C           -2.19812172278396        2.11341552026979       -0.08435044871229
C           -1.89614822687832       -0.35337678034018       -0.07923579858329
O           -3.04973018800339       -0.76678631016905       -0.13251476148914
N           -0.94609278390520       -1.38914671408937       -0.00608830891933
C           -1.67367451785483       -2.67643577163853       -0.01994032676354
H            3.77709657374907        1.25874292798261        1.07693100319754
H            4.05220099736388        1.09681468858453       -0.66652723427317
H            2.75057638153404        2.15486231860549       -0.05962664620107
H            3.65343000652617       -1.62423503567002        0.11231772846777
H           -1.56402431607477        3.00613271519677       -0.03280436802156
H           -2.77238443984663        2.15705992968733       -1.00666347628579
H           -2.85613042919024        2.12477419653342        0.77988073253091
H           -1.01090942567539       -3.38147854266220        0.49014660181313
H           -1.70321751191524       -3.02730819552065       -1.05642054546505
H           -2.78849929195892       -2.65110723669433        0.38959142742952
H            1.47342559769095       -2.91913153468773        0.04687801061391
25
 energy: 22.185049226511 xtb: 6.6.1 (8d0f1dd)
C            3.28775524982602        1.22774208071069        0.10400192299713
N            2.34866017398305        0.14563094368629        0.03999161882417
C            2.69127507936228       -1.19776609904821        0.07635077846345
N            1.52014463831694       -1.91472779286873        0.04927315169298
C            0.43208853528106       -1.11563652408719        0.00711099853748
C            0.94043852654836        0.20062312093514        0.00034553470790
C            0.08779133145425        1.30242243402265       -0.06617020938107
O            0.40229632893078        2.49415635975237       -0.08131969696823
N           -1.35316342909149        0.91290127063704       -0.06829863505388
C           -2.18738153076366        2.10950787253829       -0.09138114427183
C           -1.88091808068064       -0.36897405085077       -0.04110245206698
O           -3.03401953238200       -0.78108530839432       -0.04506042287602
N           -0.94112954941744       -1.41326354372901        0.01923923760740
C           -1.71260557090267       -2.70248297606528       -0.00076929753683
H            3.79501114193185        1.26948537139703        1.07764952825633
H            4.05966404802262        1.11444855520450       -0.66661969890943
H            2.76153210963442        2.16856873983711       -0.04908791631998
H            3.67563948665830       -1.61171353592895        0.12614478281051
H           -1.53929151864545        2.99230573811653       -0.03958142297180
H           -2.75728938284584        2.16794645108117       -1.01599700829787
H           -2.84634858088259        2.13775765707262        0.77173949246318
H           -1.00079564484293       -3.42626025161580        0.39391819998511
H           -1.83475862894139       -2.98608150734231       -1.05542495981402
H           -2.82935499726742       -2.72936689413534        0.50079206799418
H            1.50635253759023       -2.91590348746071        0.05942371456719
25
 energy: 29.126181148344 xtb: 6.6.1 (8d0f1dd)
C            3.29665624370651        1.23970448654556        0.11030397310508
N            2.35123069676535        0.16040421206509        0.04294478866140
C            2.70330570475335       -1.18060470447187        0.08358048708022
N            1.53721716881038       -1.90679809184182        0.05685716521249
C            0.43585065896692       -1.12287066219368        0.02120826956740
C            0.93477789956712        0.20183994385384        0.01129506337839
C            0.07437514834939        1.29852143924681       -0.07132883690616
O            0.40132012473818        2.48864718368148       -0.11336507485338
N           -1.36197688392758        0.90757395999165       -0.07066944221084
C           -2.18035640637568        2.11322135808938       -0.09435219474011
C           -1.87357542073179       -0.37294032105404        0.02626869495520
O           -3.02774203120788       -0.77360110290893        0.11164702879890
N           -0.94189497980473       -1.42830710006404        0.04007108433740
C           -1.75276521289395       -2.73018590617195       -0.00591624000923
H            3.80855489078843        1.27729733407397        1.08285808300351
H            4.07048833520280        1.12848825494750       -0.66017970865694
H            2.77708557354223        2.18442746213730       -0.03886859246342
H            3.69071374709487       -1.59319857994312        0.14580050571018
H           -1.51434213709146        2.98215065715432       -0.04286297650832
H           -2.74513176713808        2.18524426410081       -1.02110581682299
H           -2.83677965508633        2.15413660559202        0.76906285716124
H           -1.00137300272478       -3.46113089191197        0.28337961552121
H           -1.95251937261916       -2.94141457954059       -1.06484138228916
H           -2.87056451090146       -2.84960272502686        0.54783532160114
H            1.53674436457359       -2.90876069572445        0.06410659356987
25
 energy: 40.532072999427 xtb: 6.6.1 (8d0f1dd)
C            3.30767541888339        1.25334380614976        0.11351336010792
N            2.35907487531795        0.17634435418344        0.04654022599827
C            2.71499044964967       -1.16129757851425        0.08713587418889
N            1.55665840111420       -1.89875266204654        0.06784500327615
C            0.44775266087100       -1.12510517008988        0.03839836065872
C            0.94192945491743        0.20562240392703        0.02247166068029
C            0.07071223987571        1.29611414760673       -0.06480026042224
O            0.41131819479759        2.48568915318713       -0.12932522534732
N           -1.35901532770512        0.89685761807668       -0.07521250699002
C           -2.16903730148391        2.11022475710196       -0.10051415281336
C           -1.86223554023512       -0.38258193922544        0.05322520851401
O           -3.01233838225859       -0.80802912016388        0.11720071262088
N           -0.92879648632423       -1.43731899577300        0.05283998168804
C           -1.75749546558517       -2.73975870643200       -0.04254555498341
H            3.82699556888916        1.28757915806116        1.08281493465309
H            4.07872749429549        1.14508777493091       -0.66097084332507
H            2.79054277838392        2.19992362036754       -0.02992188684935
H            3.70487153105060       -1.57303203701947        0.16033939770343
H           -1.49043224781257        2.96968362945512       -0.04144074940139
H           -2.72642813757226        2.20099843070458       -1.02960946247293
H           -2.83030759466829        2.16274566258806        0.75884914325970
H           -0.99798782521632       -3.48555627914356        0.17303437350404
H           -2.05435590308679       -2.88733879247572       -1.08074582524458
H           -2.93311408875152       -2.96669973502372        0.52681028431557
H            1.56708520692503       -2.90144537586754        0.06972688758531
25
 energy: 62.692608087789 xtb: 6.6.1 (8d0f1dd)
C            3.31883428829149        1.26627401580233        0.11662434322984
N            2.36633220849150        0.19321771322592        0.04945932496821
C            2.72462064632613       -1.14161043968991        0.09165059789643
N            1.57606145307522       -1.89113135370815        0.08011674085731
C            0.46430002595369       -1.12364505186825        0.05526095419079
C            0.95064280041170        0.20960177148472        0.02891328131141
C            0.06480976778833        1.29256278622526       -0.05436963449266
O            0.42350057055381        2.47962321615596       -0.13245191111097
N           -1.35495978864256        0.89095730965717       -0.06444335349790
C           -2.15793073067001        2.10980511777145       -0.10658015913670
C           -1.85233836467906       -0.39986800618871        0.06688162993091
O           -2.99215176536379       -0.88811500557594        0.07524238789333
N           -0.90746047077351       -1.44273387569868        0.05559745578529
C           -1.73751211604098       -2.73643341288079       -0.07459688728404
H            3.84480389432737        1.29534260338861        1.08268432669562
H            4.08690921982472        1.15923765902540       -0.66160855519751
H            2.80486734223316        2.21496792433429       -0.02101586792047
H            3.71707384841848       -1.54907778939438        0.17194985144095
H           -1.46373340198171        2.95745824600283       -0.04227379826090
H           -2.70684823753013        2.21715583505203       -1.03839657664228
H           -2.82440887724769        2.17848387351381        0.74720567454487
H           -0.98638805868690       -3.50500983195064        0.06559197764452
H           -2.14913526941275       -2.82732968272560       -1.06863869899547
H           -3.05421072503147       -3.06927418550382        0.51651169902051
H            1.59491796867796       -2.89400886682482        0.07496320263606
25
 energy: 101.405308186338 xtb: 6.6.1 (8d0f1dd)
C            3.33040639843416        1.27881452330903        0.12299954565840
N            2.37753451840199        0.20173118934222        0.05680908879294
C            2.73040731131159       -1.11639094999121        0.10488020561838
N            1.60240329386706       -1.88247005856973        0.08758949571709
C            0.48547903652295       -1.11452333658125        0.04571983204878
C            0.96617644365022        0.21643012016132        0.02620617890673
C            0.05062548580741        1.28978639212162       -0.04582156601625
O            0.42221280820782        2.47060587527480       -0.11120334725167
N           -1.34606120307469        0.88948852056287       -0.05428293970332
C           -2.15082098512559        2.11056251360522       -0.11259617801581
C           -1.83993898689468       -0.42542423608099        0.05422260420544
O           -2.96269722488387       -0.97066853502531        0.05547161136866
N           -0.85838866330495       -1.44364388006178        0.01436102890960
C           -1.60890385394758       -2.69528427460384       -0.14635082625388
H            3.86042487734423        1.30244529342592        1.08539340679092
H            4.09560738009275        1.17374683671978       -0.65708876393103
H            2.81955594974293        2.23018864081229       -0.00960179590676
H            3.72490673288610       -1.51958699803187        0.18078026769790
H           -1.44260861108649        2.94578472489561       -0.03735866148329
H           -2.68866228260167        2.23651246314043       -1.04727102605445
H           -2.82389405740730        2.18220418121734        0.73457866079911
H           -0.94178287066444       -3.52779673227871       -0.05313067523253
H           -2.24520793139746       -2.76291823007977       -1.00556377886574
H           -3.40415192171466       -3.20634802707086        0.54270905616990
H            1.62400639149214       -2.88632191293177        0.08071090488627
25
 energy: 118.550409282717 xtb: 6.6.1 (8d0f1dd)
C            3.34148384418236        1.28772722995114        0.12562606112042
N            2.38609850097512        0.20452146485262        0.07045552171993
C            2.73279060961317       -1.10273622322877        0.13434126154251
N            1.61778245020170       -1.87793300273782        0.10353770541274
C            0.49384277434836       -1.10673898160160        0.03547849301514
C            0.98036705846274        0.22232550561662        0.02249905174665
C            0.05072848277522        1.28754174920186       -0.03931083370022
O            0.41968905046439        2.46691555493080       -0.09494662264869
N           -1.34269430185254        0.88405618061523       -0.04329482013458
C           -2.14388498052695        2.10809028546377       -0.11961612798141
C           -1.86569279263549       -0.44401316315094        0.02991394022988
O           -2.97011869789261       -1.04436451022165        0.02125243993984
N           -0.83975025104870       -1.44236781391118       -0.02159019744313
C           -1.53333453203856       -2.66620523914231       -0.21790014620929
H            3.87903243201315        1.31324876549897        1.08348549107088
H            4.10355147519587        1.18959088156525       -0.65890184609444
H            2.83211733822840        2.24119150122810       -0.00269801188280
H            3.73258155718532       -1.49486561028950        0.19449024298887
H           -1.42813056562958        2.93410313688729       -0.03081583830430
H           -2.66783911484205        2.24085514514045       -1.06092966294934
H           -2.83055150536029        2.16864194103290        0.71804669240331
H           -0.93281730508073       -3.53873298036153       -0.16897585685183
H           -2.34168287376399       -2.69873936231916       -0.92893627052188
H           -3.66909255431073       -3.26482044438761        0.49898143040976
H            1.65091181888916       -2.88115110040404        0.09436924876531
25
 energy: 131.703461573036 xtb: 6.6.1 (8d0f1dd)
C            3.35257130222086        1.29797078444660        0.12885266190713
N            2.39929233052617        0.22048992487066        0.07941246526087
C            2.75105723741949       -1.11457186786795        0.16220540789061
N            1.60698946832295       -1.87975935961059        0.11990047442959
C            0.51050414828991       -1.08706596164810        0.01760101681915
C            1.00569833650644        0.23153201839792        0.00895344929172
C            0.10555925475619        1.33195121441246       -0.04628783495594
O            0.48125195748060        2.51184877692918       -0.10425226583705
N           -1.26103779621403        0.94680460292903       -0.04270571281908
C           -2.11498823865725        2.12458631644976       -0.11818039180064
C           -1.77840295567608       -0.29081307873094       -0.01835387332917
O           -3.16472770902487       -2.02304975540429        0.21753615591885
N           -0.86944203437426       -1.34427279536100       -0.04370904992523
C           -1.66965477042955       -2.52555353315038       -0.25174710279918
H            3.89773287549098        1.32374579490471        1.08450681367697
H            4.11647048135119        1.20738518192808       -0.65783765388962
H            2.84604033233840        2.25404176572201        0.00608485688381
H            3.74848966257293       -1.48254556464320        0.20853712006462
H           -1.42080673191655        2.96248118874544       -0.02735778488181
H           -2.64173818637945        2.22187942139733       -1.06614885099559
H           -2.82472725646827        2.15033536428291        0.70430024296505
H           -1.06351770811478       -3.45891055843154       -0.17995685177036
H           -2.32420458138141       -2.61760890825007       -1.08901798435830
H           -3.76225792443543       -2.99207033416931        0.41226960767262
H            1.66395003616786       -2.87949076607183        0.10893676191758
25
 energy: 145.751810405614 xtb: 6.6.1 (8d0f1dd)
C            3.36782443795246        1.30141545454230        0.13120551949696
N            2.41067650322821        0.21326979248458        0.08942629713076
C            2.74665244065828       -1.11084769874974        0.17220845643822
N            1.61219283785053       -1.87396643535283        0.13343249365507
C            0.51299867406140       -1.07019753611155        0.02429638811363
C            1.01709408768652        0.24495904380919        0.00890182513725
C            0.11246872307875        1.34807465528366       -0.04309809413633
O            0.48742804510587        2.52601011826818       -0.09841474135369
N           -1.25244184948406        0.94877501580460       -0.03862344754954
C           -2.11567693473466        2.12507237070379       -0.11941129029061
C           -1.78442203166307       -0.29983459566894       -0.03817426802521
O           -3.35567757672892       -2.05876368523460        0.21740019464504
N           -0.85364309852644       -1.33531585082651       -0.05777593597832
C           -1.53442423712563       -2.53065937015989       -0.31430669831989
H            3.91869651439412        1.32692717374686        1.08061562707846
H            4.12500332749351        1.22086030428286       -0.66053155245194
H            2.86281101572621        2.26053179053702        0.01498381090255
H            3.74983216910792       -1.46505205618447        0.22610698665332
H           -1.43746019222318        2.97720134105558       -0.04057024777980
H           -2.63996099227429        2.20533740221849       -1.07304621511679
H           -2.83253487846436        2.14518830927600        0.69285919565517
H           -0.96521375998890       -3.45147671016131       -0.31450253836543
H           -2.39718006327123       -2.49622931441416       -0.95736599746699
H           -3.93377640720760       -2.95875529880800        0.40363700226780
H            1.67116197404703       -2.87586380202013        0.14202946366391
25
 energy: 149.419934532048 xtb: 6.6.1 (8d0f1dd)
C            3.37610105749872        1.30084119897129        0.12813759240414
N            2.42009422194438        0.19941898068310        0.09383702733338
C            2.74389441770128       -1.11652713069915        0.17341439391365
N            1.61398498451929       -1.87090812117067        0.13167567097173
C            0.51503231039783       -1.05357781147918        0.03208974357567
C            1.02747385467954        0.26243705403850        0.00886902187784
C            0.12203453581433        1.36359069859340       -0.03827403781129
O            0.49114074323351        2.54496373299238       -0.08798850221340
N           -1.25702537318904        0.94707838790683       -0.04967314140482
C           -2.11678546602816        2.12641165655613       -0.12703307954373
C           -1.79507566360500       -0.30370378104481       -0.05963656164119
O           -3.52882732197291       -2.10107583896824        0.14766350375868
N           -0.83319854275302       -1.33303612055274       -0.07419374575240
C           -1.42757634317514       -2.51913851488719       -0.37640292192195
H            3.93610676818692        1.31757493140763        1.06947926108506
H            4.12056536163277        1.23251604485850       -0.67466688622960
H            2.87050712889220        2.26363070099245        0.02822924906700
H            3.74965199268668       -1.46341248587728        0.24721702780768
H           -1.45232970775194        2.98931654926270       -0.06045191918093
H           -2.64072357566747        2.18376129377355       -1.08353224675241
H           -2.83998338918400        2.14023714169955        0.67800660922425
H           -0.88226113608860       -3.43207339005673       -0.43444364423596
H           -2.45378048517311       -2.39299461991196       -0.78260254371935
H           -4.12391977569708       -2.94195822168427        0.36980231499406
H            1.66183445006672       -2.87563086263131        0.16667746721186
25
 energy: 146.629695654632 xtb: 6.6.1 (8d0f1dd)
C            3.37236751148588        1.29598055317950        0.11744846176161
N            2.42744380665745        0.18497398966332        0.09427638224052
C            2.74489666161977       -1.13048797888383        0.16553035795493
N            1.61153292901133       -1.86822661003994        0.12497433554767
C            0.51743011841575       -1.04029926238192        0.03925008986810
C            1.03290915943528        0.27333886659764        0.00894411102026
C            0.13969510887503        1.37637480865934       -0.04016636668579
O            0.50060093523281        2.56213024329938       -0.08368753146595
N           -1.24856406347575        0.95501864885281       -0.06830895692479
C           -2.11338391130613        2.13248981529939       -0.13359097362205
C           -1.78578530160474       -0.29715089997580       -0.08269849396606
O           -3.65104441201595       -2.17257497132592        0.10442628797594
N           -0.81852383847492       -1.32769664668660       -0.09510231662106
C           -1.37800573560868       -2.50713641800698       -0.40142347026464
H            3.93545405710193        1.30647968688329        1.05543307541424
H            4.10830640299465        1.23027108310219       -0.69110329318858
H            2.85425030719817        2.25292829298855        0.01997533147370
H            3.74989893336863       -1.49054793295347        0.25131140597438
H           -1.46280121111928        3.00595422061906       -0.07591923745566
H           -2.64075019425704        2.17205528411730       -1.09029596579751
H           -2.83589324734004        2.13394483344443        0.67360196014135
H           -0.81470212844036       -3.39419710817972       -0.53662421092785
H           -2.48202908991839       -2.35262910469249       -0.62527345720894
H           -4.29722730780396       -2.95634756298166        0.33553279531845
H            1.63937864211555       -2.87523958152926        0.18864176584287
25