25
 energy: -42.106357122101 gnorm: 0.002499258669 xtb: 6.6.1 (8d0f1dd)
C            3.67755044503173        1.84950153032877       -0.22754368191200
N            2.83104337443459        0.71695636101666        0.03564358808115
C            3.22455084126215       -0.53252303481581        0.30646428776716
N            2.16169372971617       -1.33154150123932        0.50686497799120
C            1.04138980671726       -0.56552047574229        0.36053148912370
C            1.46975594710167        0.72331422083750        0.06696982208825
C            0.30711566812624        1.59373325067332       -0.09586409050381
O            0.22303894970725        2.77005302103776       -0.35054599505030
N           -0.77193170209924        0.72231887834523        0.12028245935635
C           -2.14123716871175        1.18058239535894        0.07986810962011
C           -0.41313203513121       -0.58799151096014        0.38889879176773
O           -1.18641226920353       -1.51536751259239        0.58631950143010
N           -3.24641092738609       -3.13316053906771       -0.37623087496055
C           -4.43018188527793       -2.84897291015382       -0.71797241294190
H            4.23708501433201        2.12277396050516        0.66845197001815
H            4.38356712609468        1.61893772591053       -1.02569864964049
H            3.05344616255569        2.69013610779343       -0.52582453786195
H            4.24741553632527       -0.85224076169284        0.35580924435973
H           -2.12572736786096        2.26917122236494        0.08384552868405
H           -2.63702461563322        0.83163157366399       -0.82750130043532
H           -2.67813112252905        0.81188417983091        0.95358426763144
H           -2.54674318351828       -2.47351087596774        0.01761589164590
H           -2.91761106625105       -4.09267872533609       -0.47132216058769
H           -4.80165775204134       -1.83415527825367       -0.61620807181443
H            2.19898000829404       -2.31509276025393        0.73473346406314
