72
 energy: -99.396259567265 gnorm: 0.005386784803 xtb: 6.6.1 (8d0f1dd)
N           -0.98029189575241        3.04471498656923        1.16777362115334
C           -1.41948804372513        1.75664143862744        0.71383871504792
C           -2.83865750612294        1.66811169858328        0.05747288067067
C           -3.43515954045393        0.27597580481959        0.18075538414469
C           -4.28651521644120       -0.21585322176550       -0.81253104873610
C           -4.89139918996823       -1.45893173152058       -0.71808638981855
O           -5.70751943390224       -2.00091419281706       -1.64327003754066
C           -6.01268601608591       -1.28014724903295       -2.81354165168913
C           -4.66753782932307       -2.26424813301616        0.43146373620949
O           -5.29155748951352       -3.45513710807057        0.44058597055814
C           -5.14440429757140       -4.30053361484496        1.55814472685526
C           -3.85060296555731       -1.76298035529362        1.43263587069564
C           -3.25105135865671       -0.51836334877207        1.30933786251239
C           -2.48602654845299        2.02539980726798       -1.39616464752395
C           -1.27292102218232        1.15072830481962       -1.68436790624189
C           -0.42669148740488        1.28138955051725       -0.40457810710629
N            0.32565902106919        0.13016535140291        0.00481754019686
C            1.74238320667047        0.25552252506785        0.17097482361186
C            2.55452755530683        0.09534469346741       -1.13916473614109
C            4.01718255869786        0.20084568363030       -0.83771574009792
C            4.70886509364058        1.38893968183656       -1.02798630069552
C            6.05124625867181        1.49171177919058       -0.70025427906510
C            6.73312790493743        0.40822170036306       -0.16164310462849
O            8.02701086252500        0.39461483280494        0.20147745844796
C            8.80525503784200        1.55709909278676        0.03265109164881
C            6.03223110065857       -0.81557352356241        0.04123035572920
O            6.76577170442110       -1.81384310162992        0.56790411638154
C            6.15873004599686       -3.05921413034334        0.81904887698383
C            4.69154347361267       -0.89424929708573       -0.30085531850563
C           -0.18984931829501       -1.19280770881121       -0.20564786933914
C           -3.91078324253848        2.66593061641911        0.65741584119064
C           -4.16163826091842        2.40952283476919        2.14434938669138
C           -3.63070841708232        4.08037911364946        0.39259673183508
H           -4.49791339717918        0.38330040991441       -1.68134076175541
H           -6.52643823025346       -0.34111245148179       -2.58570378769210
H           -6.67898764271161       -1.92311497772325       -3.38517590462927
H           -5.11472529755838       -1.07447046023642       -3.40476366438943
H           -5.52274894180863       -3.82907344192940        2.46997429179910
H           -5.73926432291662       -5.18424703216100        1.33582491209864
H           -4.10012729156949       -4.59327671285235        1.70401441147067
H           -3.67492961043454       -2.33546274891104        2.32878434983992
H           -2.64116461853494       -0.18570689233780        2.13299144004855
H           -3.29244407798455        1.87657495359016       -2.10751341413079
H           -2.20217449640727        3.07843326244052       -1.43967957378538
H           -1.59116106964168        0.12210716520632       -1.83943949655727
H           -0.72234169743701        1.47809370725605       -2.56462184003451
H           -1.33501706883280        1.09155902354772        1.57271260565683
H            0.28954080663477        2.09610047992900       -0.53790388674248
H            2.07530548803413       -0.50932324684564        0.87826258453596
H            1.96054886387930        1.23353150185111        0.60533849391102
H            2.25330098661529        0.87027310277763       -1.84473299811744
H            2.32963802846803       -0.87922854927050       -1.57463754630898
H            4.20201484482805        2.24607330445324       -1.44402501710372
H            6.56216178860123        2.42596040211865       -0.86660577365858
H            8.41271925215483        2.39067391370752        0.62288570104933
H            8.86392605177557        1.84976753432988       -1.01988067503620
H            9.79938783112308        1.29725012127370        0.39136756080570
H            6.94186445888715       -3.68641927120852        1.24036050162424
H            5.34113443840827       -2.96701898645035        1.54083073895977
H            5.78497254765944       -3.51662087082985       -0.10198401710563
H            4.15336885716184       -1.81847842731618       -0.16021269593908
H           -0.03564472719068       -1.55257055690658       -1.23095808631031
H           -1.25579984341041       -1.21450932476954        0.01436803771957
H            0.31629638828976       -1.88019006786423        0.47142940665813
H           -4.82466295941279        2.40537793069951        0.10409198965779
H           -3.25999963628751        2.52991810021389        2.73616945513533
H           -4.54198262047003        1.40505614123325        2.29690291462298
H           -4.90492207238402        3.11135874343031        2.51210912466237
H           -0.91933493978438        3.73978465910579        0.43879415031275
H           -3.93270462215278        4.52886893462920       -0.53840405541837
H           -3.31328132515971        4.74051960209119        1.17824271166577
H           -1.50993927015409        3.40591776778900        1.94472480166853
