25
 energy: -6.126608814768 xtb: 6.6.1 (8d0f1dd)
C            3.23138759188813        1.22690304072942        0.10948162455125
N            2.33101402766618        0.10465502103887        0.01722486124121
C            2.61302295411837       -1.25548984571682        0.01976485060458
N            1.42051701941461       -1.95233198054110       -0.01337555189170
C            0.40336121955236       -1.07251548111254       -0.02218573836988
C            0.93563170417163        0.21019791907791       -0.00476592294857
C            0.12781099178013        1.36670340693236       -0.01556202279714
O            0.51222390830874        2.53972672753523       -0.02652156404813
N           -1.26070356170210        1.03782767052256       -0.03295184876382
C           -2.20463720317951        2.14282893855837       -0.05248171503263
C           -1.81803011741538       -0.20438978090637       -0.04584216236851
O           -3.01897585664332       -0.38584506248248       -0.06512490999842
N           -0.94084203432891       -1.30784895656397       -0.03841534357866
C           -1.49123283341409       -2.64349180571311       -0.05265082685309
H            3.71222605624479        1.29814161195933        1.09039984338294
H            4.01886917941834        1.15277900137648       -0.64817711040609
H            2.65148449231423        2.13563616809411       -0.05530526800701
H            3.57737422616002       -1.70223017989402        0.01992490771740
H           -1.64176345345330        3.07338624456970       -0.02984887716608
H           -2.81056996624658        2.09324172083721       -0.95651901163636
H           -2.85666144907656        2.08247138596795        0.81673144804359
H           -1.19072296829861       -3.19892938034389        0.83919661466158
H           -1.18094242764970       -3.18563566727857       -0.94875111654324
H           -2.57688629020037       -2.53755724974889       -0.05807937926615
H            1.34563545686178       -2.95673606572058       -0.02118904922501
