25
 energy: -46.970521090106 gnorm: 6.146132260343 xtb: 6.6.1 (8d0f1dd)
C            3.21786164340000        1.13591514650000        0.01837059260000
N            2.27034809790000        0.05199982890000        0.00038279530000
C            2.54167221030000       -1.23971668410000       -0.00834188300000
N            1.39367826450000       -1.95088267900000       -0.00850347120000
C            0.35269634020000       -1.06748964300000        0.00059917290000
C            0.90759959010000        0.20069750900000        0.00663590170000
C            0.07590235260000        1.39864294500000       -0.00284827040000
O            0.48715076820000        2.53168346660000       -0.01725767220000
N           -1.27221500230000        1.06666939660000        0.00165480230000
C           -2.23229981500000        2.16656245330000       -0.00245172030000
C           -1.84872931540000       -0.19179276200000        0.00496135950000
O           -3.03273030250000       -0.36103538130000        0.00858583760000
N           -0.96599111670000       -1.30060631840000        0.00174701630000
C           -1.52030655580000       -2.64076660390000       -0.00239033190000
H            3.71480285180000        1.18589984860000        0.98803183970000
H            3.97079415090000        0.99383197990000       -0.75543416370000
H            2.68321036910000        2.07051068580000       -0.15067179540000
H            3.52469367910000       -1.66989040330000       -0.01523639120000
H           -1.67672429040000        3.10039111610000        0.00486339690000
H           -2.85755792270000        2.10547813320000       -0.89185337000000
H           -2.87119733260000        2.09858159720000        0.87661144540000
H           -1.20589108080000       -3.18768007210000        0.88663215920000
H           -1.21982032550000       -3.17678505510000       -0.90288069810000
H           -2.60531402170000       -2.54255916880000        0.00649952960000
H            1.32879827740000       -2.95942079410000       -0.01653446370000
25
 energy: -54.981785599323 gnorm: 9.909261261642 xtb: 6.6.1 (8d0f1dd)
C            3.21780903395504        1.13596360223309        0.01838961182442
N            2.27054017675994        0.05241486673639        0.00030957818331
C            2.54183774957192       -1.23983926341141       -0.00831241663566
N            1.39356046870692       -1.95095241366514       -0.00847833314288
C            0.35297605615555       -1.06746206193655        0.00068286482268
C            0.90853137297973        0.20142753733173        0.00673106920816
C            0.06564201634918        1.39024366866524       -0.00321513134716
O            0.12878919033953        2.49455773498540       -0.11359353227211
N           -1.27281282681221        1.06363586047181        0.00213318045872
C           -2.22426738413228        2.16731782924568        0.00563104525057
C           -1.84868706079981       -0.19201901716815        0.00497120925803
O           -3.03277768966403       -0.36105398556713        0.00855885605306
N           -0.96608384562259       -1.30058772688480        0.00174796102142
C           -1.52028375192856       -2.64078767164316       -0.00238571290865
H            3.71478089617845        1.18596141228797        0.98805692338237
H            3.97078561754652        0.99388336894795       -0.75541386322965
H            2.68323896008812        2.07053763089099       -0.15067077851091
H            3.52470915370903       -1.66983873548196       -0.01519696484281
H           -1.67642669630512        3.10031693113464        0.00525486437911
H           -2.49745660136905        2.15252727559759       -0.80396526799352
H           -2.87192404053310        2.09848720550069        0.87617202685124
H           -1.20584971076211       -3.18769211282747        0.88664089984419
H           -1.21976376513787       -3.17681046521335       -0.90286686417310
H           -2.60527868805334       -2.54260291213516        0.00649409095088
H            1.32884288288014       -2.95939001649489       -0.01650369853171
25
 energy: -66.824562749695 gnorm: 13.860450914367 xtb: 6.6.1 (8d0f1dd)
C            3.21772161600260        1.13602087180956        0.01838955329117
N            2.27078760459723        0.05268457794378        0.00022963148672
C            2.54200435167668       -1.23995542503363       -0.00831080991212
N            1.39347096320136       -1.95097848722159       -0.00847471309189
C            0.35302531849541       -1.06740953322370        0.00077240514045
C            0.90938292607590        0.20227685397098        0.00686757613470
C            0.05641201801194        1.37830723675186       -0.00323586093894
O           -0.23125992381607        2.46165389657907       -0.21199049986190
N           -1.27423066938383        1.05865838328562        0.00330171675992
C           -2.21448634456630        2.16810352688692        0.02168000155940
C           -1.84888561459648       -0.19202129493271        0.00508973735592
O           -3.03301436334710       -0.36124898828921        0.00855774903011
N           -0.96602333638567       -1.30064642813810        0.00174567261845
C           -1.52025294628171       -2.64080384711783       -0.00237394960637
H            3.71478224251130        1.18601269418467        0.98804659814208
H            3.97077135367029        0.99393351981367       -0.75543388766048
H            2.68328769193690        2.07055647367460       -0.15070936799206
H            3.52471955731002       -1.66979923901188       -0.01519408139824
H           -1.67596621407445        3.10061330544661        0.00628251978242
H           -2.13718069432590        2.20045180855264       -0.72368970286567
H           -2.87270464926143        2.09834216979565        0.87577420205908
H           -1.20581190403603       -3.18769995520289        0.88666397807650
H           -1.21973169313811       -3.17683372721481       -0.90284374810277
H           -2.60525300621070       -2.54262185487498        0.00651533790612
H            1.32886723003415       -2.95935799683430       -0.01648844001257
25
 energy: -82.685813149252 gnorm: 17.878306192565 xtb: 6.6.1 (8d0f1dd)
C            3.21763064204601        1.13611478650751        0.01828206053965
N            2.27111605257125        0.05313616256411        0.00008131917056
C            2.54228055793618       -1.24013633721224       -0.00836696903190
N            1.39331681898836       -1.95098238445414       -0.00848909161798
C            0.35301852450568       -1.06744970877654        0.00088797040390
C            0.90988844343933        0.20362020275137        0.00698504974775
C            0.04966770039149        1.36939212243807       -0.00326714567589
O           -0.58805799291788        2.42592521488344       -0.31247516010954
N           -1.27632063276517        1.05162953349172        0.00552687167150
C           -2.21193357969165        2.16746110381760        0.04557718181675
C           -1.84923483340753       -0.19228827006428        0.00540166491336
O           -3.03340583380137       -0.36155232965016        0.00862934213887
N           -0.96593718645419       -1.30077524162951        0.00176848120671
C           -1.52017631369663       -2.64085939818749       -0.00228233343146
H            3.71479918635174        1.18613769926174        0.98791133259688
H            3.97071865641596        0.99403471681075       -0.75558909047182
H            2.68329446012647        2.07060938710082       -0.15086073868275
H            3.52474680232486       -1.66970110589953       -0.01527153030984
H           -1.67605196190300        3.10146419069171        0.00796490426788
H           -1.77350432345063        2.25100256418534       -0.65098831538430
H           -2.87378999200498        2.09803227618296        0.87552036813355
H           -1.20569741579988       -3.18771270352243        0.88677170187235
H           -1.21967901239516       -3.17689174376323       -0.90273327066773
H           -2.60518709271753       -2.54267722014567        0.00665594241130
H            1.32892984000828       -2.95929497578189       -0.01646892760783
25
 energy: -101.673001203634 gnorm: 16.489196600219 xtb: 6.6.1 (8d0f1dd)
C            3.21750059114569        1.13632744803291        0.01868799635560
N            2.27129265259525        0.05393516390433        0.00028721842432
C            2.54270662426161       -1.24048535763514       -0.00801383325695
N            1.39322400910355       -1.95092587468813       -0.00826437944529
C            0.35334696049913       -1.06757451474513        0.00105326401671
C            0.91004385545214        0.20524060167183        0.00706174954732
C            0.04499358899712        1.36324232574823       -0.00337329559891
O           -0.94029402945093        2.38470803737082       -0.41709309678943
N           -1.27866319722666        1.04494279540491        0.00791666832532
C           -2.21425243138839        2.16627835960951        0.05680266874203
C           -1.84940308260124       -0.19324771596055        0.00535223057840
O           -3.03384999840397       -0.36183171079171        0.00816552910924
N           -0.96616000302795       -1.30095195183558        0.00155183853060
C           -1.51999646860531       -2.64098625772794       -0.00245089829673
H            3.71459815156998        1.18641382737339        0.98837782583660
H            3.97074646456660        0.99430240929606       -0.75510145153286
H            2.68323624047681        2.07075916544082       -0.15057873789598
H            3.52483034074228       -1.66945399650542       -0.01478562765309
H           -1.67730348501616        3.10288886753930        0.00948515689282
H           -1.41021839683006        2.30389612013926       -0.56293723847588
H           -2.87512169419741        2.09757242975005        0.87514038927486
H           -1.20559647386945       -3.18778886292065        0.88665364661574
H           -1.21933768772544       -3.17700357951007       -0.90285181668707
H           -2.60501089429400       -2.54285650398071        0.00633709019377
H            1.32911987732681       -2.95916268338041       -0.01625127891111
25
 energy: -102.450173521027 gnorm: 31.076211959597 xtb: 6.6.1 (8d0f1dd)
C            3.21722069672666        1.13695799172077        0.02061051288402
N            2.27096336869369        0.05542809511119        0.00154204879332
C            2.54354760283371       -1.24089012088911       -0.00644830694836
N            1.39330021251391       -1.95076448071433       -0.00736250205389
C            0.35428146944720       -1.06769084597667        0.00119794691333
C            0.90935796330977        0.20617833765440        0.00686357292689
C            0.04844064988970        1.36332352831304       -0.00330083912111
O           -1.26920212224765        2.33398528236237       -0.53333256058464
N           -1.28428314983816        1.03311875649826        0.01172633316102
C           -2.22464595607328        2.16225095025519        0.05406767022883
C           -1.84901435032983       -0.19499529717036        0.00469370342349
O           -3.03470740227692       -0.36252171163612        0.00608440257554
N           -0.96655755497104       -1.30174123906994        0.00068464408321
C           -1.51943843316304       -2.64133440489005       -0.00341776958996
H            3.71374443961996        1.18718493110899        0.99059657729540
H            3.97099947423665        0.99509470780026       -0.75273994589414
H            2.68290975548142        2.07122537689449       -0.14904313458483
H            3.52512264289197       -1.66873317300443       -0.01261784243468
H           -1.68096404239881        3.10729336548032        0.00950553329206
H           -1.06634421134838        2.36540180934625       -0.45487194425742
H           -2.87592993191349        2.09710168176794        0.87519931134171
H           -1.20549197991387       -3.18806064544669        0.88589755575068
H           -1.21811887145782       -3.17732217096684       -0.90363063618127
H           -2.60448396886870       -2.54340510308778        0.00469075045334
H            1.32972521325635       -2.95884707986115       -0.01542346357254
25
 energy: -89.694417694827 gnorm: 19.773290437239 xtb: 6.6.1 (8d0f1dd)
C            3.21705625433450        1.13728949488092        0.02463743288170
N            2.27083322081601        0.05621695734753        0.00418574038560
C            2.54399237404302       -1.24108987438017       -0.00359217337481
N            1.39333689378255       -1.95073422946190       -0.00601479740740
C            0.35475678998215       -1.06794228849114        0.00130388387365
C            0.90864025003166        0.20667184799193        0.00769016418383
C            0.05170606577689        1.36307444543493       -0.00251466513709
O           -1.60092105563387        2.28773044730532       -0.67297780207266
N           -1.28617149416910        1.02613320167010        0.01342392863555
C           -2.23418388897604        2.15764149017951        0.05324720586559
C           -1.84859839671825       -0.19610963810479        0.00260015318876
O           -3.03530644083778       -0.36291571973915        0.00206223854494
N           -0.96666902058050       -1.30222088536552       -0.00105260678100
C           -1.51914184559683       -2.64152625058501       -0.00582251569271
H            3.71239146057687        1.18744963446265        0.99523966385719
H            3.97182572803347        0.99562483460754       -0.74781893175482
H            2.68286164021277        2.07148546942672       -0.14557390281690
H            3.52529644679266       -1.66835051421272       -0.00860286442206
H           -1.68211592749838        3.11033542766662        0.00811199673455
H           -0.72502886880683        2.42045321886364       -0.32489682077183
H           -2.87710882048792        2.09708946651122        0.87279751316364
H           -1.20623969476927       -3.18833227413321        0.88382071642785
H           -1.21664498752013       -3.17736244290366       -0.90573071560618
H           -2.60420796852801       -2.54369408791873        0.00096030368906
H            1.33007279984036       -2.95867918945266       -0.01431152769444
25
 energy: -96.506572188883 gnorm: 20.023042289682 xtb: 6.6.1 (8d0f1dd)
C            3.21727376623129        1.13664940821936        0.02586381016643
N            2.27080648236478        0.05691288639490        0.00481200112429
C            2.54440118249873       -1.24259245048781       -0.00301626003964
N            1.39260698786730       -1.95119636600570       -0.00588124508294
C            0.35510154009392       -1.06861815772278        0.00112872411770
C            0.90703696352548        0.20841553119906        0.00784217842337
C            0.05839957257156        1.36365329743088       -0.00032264860440
O           -1.46351879322058        2.32275927544953       -0.67030373364273
N           -1.28611046439732        1.01318994127416        0.02182801290611
C           -2.26507570423771        2.14713127078887        0.08402464248924
C           -1.84765521595333       -0.19797013298758        0.00268464772649
O           -3.03702071044888       -0.36253914791538        0.00101541129648
N           -0.96734700976577       -1.30287469837366       -0.00223379479341
C           -1.51964535175893       -2.64123573295562       -0.00680686559694
H            3.71238277528978        1.18655818707978        0.99661841411930
H            3.97229220239037        0.99498618019175       -0.74643523218211
H            2.68336973953124        2.07091298627914       -0.14441646575366
H            3.52495226326110       -1.66904310050671       -0.00780823634891
H           -1.68370907286674        3.11660317096753        0.01114817591280
H           -0.82984502463491        2.40556637235380       -0.37461855701749
H           -2.87897273701129        2.09810794589334        0.87463688020660
H           -1.20712240974460       -3.18821624677115        0.88286288508265
H           -1.21697341109090       -3.17695869201684       -0.90669794871692
H           -2.60469304599371       -2.54310821798092       -0.00032851496042
H            1.32949698959913       -2.95885496819795       -0.01442466293189
25
 energy: -87.127549923266 gnorm: 239.271287991298 xtb: 6.6.1 (8d0f1dd)
C            3.21762092056783        1.13576505698870        0.02496732160010
N            2.27076476597346        0.05746775934250        0.00404167881589
C            2.54470586324246       -1.24429858015976       -0.00397420308743
N            1.39175664894307       -1.95178395347708       -0.00647849443586
C            0.35545738254418       -1.06931686449313        0.00083370947330
C            0.90574895399129        0.21008622458739        0.00740685112440
C            0.06103260590269        1.36128111612907        0.00184778182803
O           -1.10238719251849        2.39499444706507       -0.58354134016342
N           -1.28547042537547        0.99914112442474        0.03035792174445
C           -2.29435812991044        2.13704627307749        0.12206981310177
C           -1.84651591861239       -0.19924507368688        0.00394023734269
O           -3.03866019154198       -0.36174878112701        0.00207687466836
N           -0.96819343145881       -1.30317911960682       -0.00258336446499
C           -1.52036019930234       -2.64074087375195       -0.00653841476631
H            3.71312705545189        1.18542109701489        0.99553556460236
H            3.97234454325487        0.99398099006389       -0.74765883759472
H            2.68396933432485        2.07011308958919       -0.14507613131857
H            3.52444915969106       -1.67000708329717       -0.00917620215331
H           -1.68396221080965        3.12361202324609        0.01481614315321
H           -1.15918082246620        2.35594304377401       -0.50971240876210
H           -2.87891614940403        2.09954882607911        0.87647791730461
H           -1.20767574299078       -3.18794607141630        0.88297390740559
H           -1.21815725467914       -3.17649536661013       -0.90659994040212
H           -2.60537854822766       -2.54229747729769        0.00033540443565
H            1.32867049750973       -2.95910328485822       -0.01517017155158
25
 energy: -94.140983891979 gnorm: 20.071243442215 xtb: 6.6.1 (8d0f1dd)
C            3.21966018446170        1.13031882716962        0.05143209968585
N            2.27109067476486        0.05349050752162        0.02077146307241
C            2.54261733254303       -1.24829533807138        0.01193532626561
N            1.38856800004575       -1.95398847229862       -0.00098796634752
C            0.35351209185358       -1.06984396587324        0.00036774362543
C            0.90613003281358        0.20840512139135        0.01420382246229
C            0.06487183989664        1.36024441723122        0.00507850369752
O           -0.88519198795534        2.53880666694854       -0.81579910635551
N           -1.28404465175929        1.00284463005732        0.02247076824538
C           -2.27795627996577        2.14211885745301        0.09142817625363
C           -1.84718553400785       -0.19584459088149       -0.01128244012020
O           -3.03895612056059       -0.35629624431232       -0.02278384631681
N           -0.96998154238319       -1.30133921031315       -0.01366584480957
C           -1.52481983555083       -2.63787382921050       -0.02494389658686
H            3.70779311036487        1.17689328686110        1.02591950989465
H            3.98004161695034        0.98894015135679       -0.71573818670393
H            2.68891988430353        2.06596455727487       -0.12060058288464
H            3.52182702634854       -1.67595162359137        0.01330766689942
H           -1.67803784907696        3.12565898212645        0.00743394179500
H           -1.37358274063172        2.21939812001450       -0.27009631309455
H           -2.88231279936961        2.10299051619340        0.85944360346586
H           -1.21990981230258       -3.18760001559075        0.86575751508082
H           -1.21665324456082       -3.17209292569479       -0.92389323608601
H           -2.60973494336636       -2.53750450559705       -0.02615271950895
H            1.32376706124447       -2.96120537856515       -0.01243438372931
25
 energy: -93.743239708806 gnorm: 19.997047559694 xtb: 6.6.1 (8d0f1dd)
C            3.21958480228522        1.13065854667023        0.05592795940842
N            2.27099033690003        0.05298704017413        0.02366712571482
C            2.54226159906288       -1.24740285830635        0.01510790331019
N            1.38878812516781       -1.95360057384001        0.00049774719479
C            0.35266739340411       -1.06978918786796        0.00036550128833
C            0.90674902387627        0.20799871183111        0.01383057661415
C            0.06566282832781        1.36443359915702        0.00384990176305
O           -1.05012246188208        2.50693142511673       -0.90239218561256
N           -1.28790023963472        1.00950879801425        0.02148059196159
C           -2.25859722484938        2.14996643210638        0.04963801249002
C           -1.84954735341319       -0.19672386772082       -0.01312641662107
O           -3.03826478129958       -0.35700521385749       -0.02732118382313
N           -0.96909982732333       -1.30195281193960       -0.01504893679325
C           -1.52460724274744       -2.63814197741076       -0.02783678891919
H            3.70634292821029        1.17695135136354        1.03113978290200
H            3.98100139486528        0.98942424936227       -0.71020727684759
H            2.68900265131427        2.06620906747078       -0.11665064073455
H            3.52211656706404       -1.67576869079228        0.01770400025525
H           -1.68200841642832        3.12404503930611        0.00648214941064
H           -1.21480090011351        2.23717321803737       -0.15192345803143
H           -2.88805679254498        2.10116315303314        0.86093312580591
H           -1.22090478731110       -3.18788272023304        0.86327180049876
H           -1.21519784308996       -3.17204887911603       -0.92640187856795
H           -2.60958383250570       -2.53767819906406       -0.03044624954557
H            1.32395556676526       -2.96121710989467       -0.01136954522163
25
 energy: -104.296182978432 gnorm: 6.974826489042 xtb: 6.6.1 (8d0f1dd)
C            3.21791481067161        1.13558418390988        0.03370016981089
N            2.27048077092979        0.05903170337470        0.00906606360994
C            2.54514635103191       -1.24579215371382        0.00172198528063
N            1.39051440871641       -1.95198277158961       -0.00388320962235
C            0.35461061948468       -1.07180156429874        0.00009974832180
C            0.90377933920939        0.21586929968766        0.00454918317658
C            0.06211584223687        1.35471227267820        0.00573128378825
O           -1.07155264450639        2.43396926952749       -0.71332786698198
N           -1.29742200427901        0.96423127801630        0.06033525118889
C           -2.31603601907562        2.12376997626677        0.10767540915057
C           -1.85038248323418       -0.20886457034600        0.00395058012294
O           -3.04185644817095       -0.36288622466475       -0.00658009310146
N           -0.96692307998183       -1.30723955440667       -0.00713580709244
C           -1.52074003282150       -2.64077521508327       -0.01276237807958
H            3.71099284470964        1.18410534318369        1.00559249707588
H            3.97448032014101        0.99389527314583       -0.73718985628081
H            2.68503177442999        2.06945705908552       -0.13730298483242
H            3.52458776564790       -1.67089470072936       -0.00144306244950
H           -1.69709970108652        3.14256090293510        0.02348802929826
H           -1.11335991384328        2.36816678006479       -0.43906211228629
H           -2.89913225265016        2.09826069223646        0.89070972391933
H           -1.21044074542040       -3.18826517436170        0.87755598432933
H           -1.21645847201947       -3.17586606605428       -0.91208200968595
H           -2.60587762782239       -2.54157545127932       -0.00827866297879
H            1.32805809180252       -2.95943204598488       -0.01395624778174
25
 energy: -103.495575021220 gnorm: 12.260292192696 xtb: 6.6.1 (8d0f1dd)
C            3.21796008869068        1.13561913200971        0.03966629841575
N            2.27049376079092        0.05937717233929        0.01259516290825
C            2.54523083993969       -1.24593389607714        0.00561714710231
N            1.39015904079238       -1.95212114614197       -0.00223859136630
C            0.35414406528365       -1.07298776473742       -0.00012793685048
C            0.90230286272780        0.21656643168242        0.00487960587342
C            0.06971038401218        1.35328270810603        0.00952446622285
O           -1.05508351398767        2.44732535143479       -0.78903870238053
N           -1.29998532774018        0.95405487068635        0.07276472091301
C           -2.31527920897080        2.11789528451350        0.09089334991265
C           -1.85219011392323       -0.21402669676486        0.00293595451156
O           -3.04392819518552       -0.36423618445427       -0.01246468573539
N           -0.96618957548284       -1.30954301124300       -0.01004177062499
C           -1.52073298487003       -2.64107076862741       -0.01682612654482
H            3.70936798090864        1.18360770224464        1.01245489654460
H            3.97587497511336        0.99410321103604       -0.73001377771678
H            2.68545054140319        2.06934158063871       -0.13201841721355
H            3.52470289296689       -1.67111136776658        0.00398223076702
H           -1.70293674690778        3.14779420341243        0.02508148348947
H           -1.11649672151505        2.37712937650815       -0.38075922704801
H           -2.90703178018689        2.09830734899566        0.89298719448719
H           -1.21207935146540       -3.18860684784195        0.87401554125683
H           -1.21498727931035       -3.17564078084518       -0.91570394126784
H           -2.60599124057743       -2.54137262854402       -0.01406706536119
H            1.32794612159380       -2.95951473896392       -0.01292619239500
25
 energy: -104.421182359709 gnorm: 3.790600479443 xtb: 6.6.1 (8d0f1dd)
C            3.21853997250253        1.13461254040026        0.03585020422737
N            2.27048355358537        0.05875016651493        0.00963468589015
C            2.54460470096361       -1.24661806021541        0.00258598898666
N            1.38955204980437       -1.95261312141376       -0.00383603925454
C            0.35381217227214       -1.07315878697619       -0.00052249963525
C            0.90328331323255        0.21761816499534        0.00326354633110
C            0.05729403821818        1.34287308822700        0.01053743989166
O           -1.06516508819558        2.48390084329797       -0.75229751817198
N           -1.29948043051407        0.94771147734820        0.08253162216043
C           -2.30379124343957        2.11583256391737        0.10225001042442
C           -1.85317886270033       -0.21623230270024        0.00669128859053
O           -3.04501252328679       -0.36395851578075       -0.00862839892219
N           -0.96600933300691       -1.31053495828912       -0.00901793348738
C           -1.52165304006520       -2.64081613176176       -0.01498330444571
H            3.71107714370939        1.18227051640753        1.00801969327689
H            3.97530917761698        0.99278265024775       -0.73477479017566
H            2.68612570816920        2.06840539288557       -0.13515071819776
H            3.52422671360832       -1.67239721430899       -0.00032745390365
H           -1.70425047734573        3.15133050434334        0.02970165655720
H           -1.09687065699500        2.36271764136063       -0.43631728392380
H           -2.90916224641610        2.09951065954667        0.89995233790331
H           -1.21207227026538       -3.18819563655840        0.87553101698012
H           -1.21724842580815       -3.17521404093419       -0.91418836835189
H           -2.60686046817088       -2.54032558886174       -0.01077274018361
H            1.32687803662705       -2.96001331009201       -0.01456082466641
25
 energy: -104.403450658570 gnorm: 4.976621485507 xtb: 6.6.1 (8d0f1dd)
C            3.21746479561730        1.13751617962701        0.03418634342472
N            2.27020801845399        0.06199211848873        0.00834387707281
C            2.54628224003936       -1.24543741125390        0.00232455205109
N            1.39036108932439       -1.95181729769202       -0.00322161811113
C            0.35421075785487       -1.07547924988698       -0.00068159613612
C            0.89905833825891        0.21936779660406        0.00048595386027
C            0.08178640849581        1.34840292658135        0.01630361196806
O           -1.03801010578460        2.43790629815981       -0.75920039880977
N           -1.30456571781492        0.93040606566699        0.10714714770674
C           -2.33566108779798        2.09737731319066        0.09337442648611
C           -1.85635850470154       -0.22799299434514        0.01152593963193
O           -3.04855522460185       -0.36925061960400       -0.00768959990264
N           -0.96444330574263       -1.31532109499398       -0.00902356359233
C           -1.51929230218512       -2.64295561788642       -0.01347002451188
H            3.71051502527575        1.18585706194457        1.00615001493177
H            3.97413643317835        0.99588571471338       -0.73680803252674
H            2.68431363091049        2.07039267311412       -0.13722815842387
H            3.52578373020339       -1.66959931061706       -0.00084989866333
H           -1.71803259889460        3.16136281536944        0.03590789333703
H           -1.08920358734766        2.43946871014184       -0.47057549323974