25
 energy: 0.000000000000 xtb: 6.6.1 (8d0f1dd)
C            3.23720132972391        1.16630909158653        0.08434468864950
N            2.29877796055224        0.07527476373246        0.03981602671198
C            2.58028186251803       -1.21425391179017        0.03006175752192
N            1.43813944744728       -1.93419254010258        0.00098261751768
C            0.39035684826767       -1.05887462812143       -0.00790371763344
C            0.93510047688824        0.21347817468824        0.01709077332874
C            0.09450143016486        1.40504290868848       -0.00410946993748
O            0.49712746915594        2.54126690785742       -0.00342325656480
N           -1.25076628431515        1.06271869620815       -0.03085477937476
C           -2.21907191394203        2.15522079838987       -0.05001256521996
C           -1.81739470187490       -0.20012724136556       -0.04692818139228
O           -2.99983858926755       -0.37846413507442       -0.07008877579474
N           -0.92618577614240       -1.30210203518959       -0.03682761236648
C           -1.46982251276835       -2.64643077634382       -0.06029819901142
H            3.71247229913541        1.21471443890471        1.06488839270555
H            4.00791460421487        1.03430799217987       -0.67357688121503
H            2.69909982127087        2.09770098766290       -0.09130154035862
H            3.56654087521359       -1.63682977417947        0.04233139674524
H           -1.67107945562430        3.09322822573871       -0.02552706696334
H           -2.82428927394145        2.09428605349656       -0.95318074103337
H           -2.87644002486466        2.07745706351925        0.81450059976605
H           -1.17061985538665       -3.19584861009707        0.83242224714061
H           -1.14560246782873       -3.17511580834413       -0.95688266944647
H           -2.55549768731684       -2.55659960601237       -0.07459039105944
H            1.38130842369251       -2.94313824728853       -0.01389874052104
25
 energy: -6.198645516956 xtb: 6.6.1 (8d0f1dd)
C            3.23419245635457        1.22450181048312        0.08948548743125
N            2.32597029450343        0.10646846006431        0.03794351732222
C            2.61080486099759       -1.25091651483702        0.03342034684927
N            1.42145437995753       -1.95076541352644        0.00070737186070
C            0.40314471080421       -1.07223937141183       -0.01044554975924
C            0.93338459415741        0.21152095357324        0.01300300176089
C            0.12709125885601        1.37085714064287       -0.00585884518781
O            0.50889097563247        2.54539414140954       -0.00582495197558
N           -1.25893117928894        1.03996778451128       -0.03085632473501
C           -2.20146777352822        2.14414391642829       -0.04699752522721
C           -1.81523815157932       -0.20265541705332       -0.04743515810718
O           -3.01527378147044       -0.38409573630098       -0.06955841457994
N           -0.94001916074071       -1.30763347865034       -0.03882328095400
C           -1.48960843846260       -2.64354545021973       -0.06204914254489
H            3.72469446697317        1.30246680836103        1.06589952710097
H            4.01303052236177        1.12315311613353       -0.67239283882091
H            2.65896422360516        2.13376944683683       -0.08448425218618
H            3.57949348619778       -1.68311179573656        0.04361345202746
H           -1.63363064675565        3.07111683458852       -0.02839146659581
H           -2.80448796078021        2.09302495736143       -0.94966846306055
H           -2.84445027440136        2.08499140355408        0.82774937460807
H           -1.19492033024112       -3.20160843760828        0.82986815361931
H           -1.16955605137089       -3.18067422011166       -0.95821831843762
H           -2.57471893967064       -2.54013417343454       -0.07620881076671
H            1.35053515591675       -2.95514591473481       -0.01340599327159
25
 energy: -4.687230545519 xtb: 6.6.1 (8d0f1dd)
C            3.21861751397776        1.27432974891705        0.09091509865668
N            2.34934329764824        0.10335737103735        0.04407601007537
C            2.62137197756764       -1.26843774322425        0.03821972576134
N            1.42315621830607       -1.96719820769759        0.00236359738273
C            0.40787856666997       -1.08682159235803       -0.01108540852225
C            0.94879600944783        0.19375762951808        0.01341211867057
C            0.13816678591551        1.34965503872947       -0.00656039319837
O            0.52017164345894        2.52351041451540       -0.00883294201013
N           -1.25026130451415        1.02629096586992       -0.03056670487175
C           -2.18079477625670        2.13878723145517       -0.04398574224148
C           -1.81421453610407       -0.21222960195573       -0.04807636677636
O           -3.01618249415841       -0.38598532669484       -0.07023914296427
N           -0.94088226815054       -1.31789429614778       -0.04097726374366
C           -1.50899173688819       -2.64657749235407       -0.06441037349853
H            3.72114521072334        1.38786215668578        1.06062562481854
H            4.00557245992770        1.20831597380645       -0.67133596267633
H            2.60571922691799        2.15786319007021       -0.08183571898179
H            3.58143927175746       -1.72070905160608        0.04612694096299
H           -1.59808811625893        3.05560117145027       -0.03180307582132
H           -2.78304862966647        2.09445973589740       -0.94409038727161
H           -2.81004222333491        2.09518902697689        0.83908555469566
H           -1.22440108374030       -3.21033046425521        0.82713494813239
H           -1.19719070411796       -3.18843847431009       -0.96041316852845
H           -2.59343875685556       -2.52614639003030       -0.07920172971925
H            1.32972409255266       -2.97074064005020       -0.01248780477177
25
 energy: -1.885352609288 xtb: 6.6.1 (8d0f1dd)
C            3.20409059618047        1.32420755424392        0.09196803828405
N            2.37351086733607        0.09905205075314        0.05290384143346
C            2.63390544636024       -1.28667855301982        0.04740369138869
N            1.42940617336807       -1.98684123058024        0.00623273504375
C            0.41555077201498       -1.10364318689717       -0.01020878600287
C            0.96533919806393        0.17551232998981        0.01561006646168
C            0.14918349058461        1.32828632824291       -0.00819798282414
O            0.52842563950518        2.50275737253171       -0.01441429639866
N           -1.24120263864516        1.01197910757712       -0.03090308929209
C           -2.15935507900284        2.13356974814572       -0.04011253413352
C           -1.81126292652462       -0.22285231922118       -0.04915339098817
O           -3.01518415840224       -0.39095966167651       -0.07170338161243
N           -0.93872916173038       -1.33020664037534       -0.04330824033893
C           -1.52760495185963       -2.65060465754353       -0.06706592515864
H            3.71171099812122        1.47300885086763        1.05537868072727
H            3.99426834853442        1.29386421724878       -0.67230865959738
H            2.54918496214356        2.17533764834613       -0.07961309208400
H            3.58499371697536       -1.75752637287155        0.04901633867877
H           -1.56132730645108        3.04011036064567       -0.03604418907186
H           -2.76366360378550        2.09275522151735       -0.93522245551433
H           -2.77311163400906        2.10472286383058        0.85207600161707
H           -1.25384395658093       -3.21991629583540        0.82421458865786
H           -1.22549169936529       -3.19735762156002       -0.96310009158959
H           -2.61097293336184       -2.51168763869070       -0.08206048020387
H            1.31792958232376       -2.99112647215854       -0.01232358995213
25
 energy: 2.198179936182 xtb: 6.6.1 (8d0f1dd)
C            3.19186263033772        1.37512062014326        0.09410066440834
N            2.39805415507379        0.09490795801407        0.06329656462221
C            2.64725456332939       -1.30485358055218        0.05868619258640
N            1.43874322840247       -2.00691929627220        0.01076374842862
C            0.42504711511226       -1.12128405647966       -0.00994733484412
C            0.98246039696698        0.15754865688523        0.01742296946343
C            0.16056546972573        1.30698534779295       -0.01097854557427
O            0.53533117426018        2.48257225734354       -0.02132770844980
N           -1.23167404744560        0.99834109586643       -0.03172640530502
C           -2.13733219247826        2.12974180615935       -0.03562181619643
C           -1.80565477478247       -0.23344675062962       -0.05060663008564
O           -3.01046348644951       -0.39850595315883       -0.07201028448264
N           -0.93413983154753       -1.34304612275841       -0.04652958703436
C           -1.54371936900237       -2.65526348657749       -0.06954940378769
H            3.69997746446457        1.55942564966701        1.05160952010836
H            3.98238226135370        1.37723899101214       -0.67187576605780
H            2.49509151245840        2.19116792767110       -0.07731975574252
H            3.58831406402210       -1.79470703249104        0.04977921956172
H           -1.52426287291580        3.02623676519237       -0.04101361537205
H           -2.74553992297845        2.09054794136922       -0.92421322790580
H           -2.73469519299345        2.11446159535291        0.86592792543121
H           -1.27889600675668       -3.22873073656378        0.82164585702669
H           -1.25087341081074       -3.20653514381351       -0.96554106200916
H           -2.62592748308693       -2.49887898932235       -0.08391479237096
H            1.31513468631859       -3.01341333044215       -0.01097438121811
25
 energy: 7.411191669332 xtb: 6.6.1 (8d0f1dd)
C            3.19179503192979        1.42373569293754        0.09922389688247
N            2.41670021972051        0.08826394975564        0.07492227783510
C            2.65836544789511       -1.32237362800891        0.07575912811635
N            1.44966620021635       -2.02593705487800        0.01625799142626
C            0.43364382039625       -1.14016957824038       -0.01081717209970
C            0.99743143498526        0.13937658251027        0.01864561332172
C            0.17282883537212        1.28631327826887       -0.01195453207192
O            0.54404494593355        2.46282985525243       -0.02568119907972
N           -1.22040205789544        0.98558931474141       -0.03128520471780
C           -2.11433531522436        2.12572282165841       -0.03145091597345
C           -1.79855978359596       -0.24265236756646       -0.05109989842236
O           -3.00412154477176       -0.40259922375062       -0.07144044543503
N           -0.93002743810761       -1.35633752320132       -0.04978137807507
C           -1.56022525093764       -2.66010600011857       -0.07214440540675
H            3.69494413688390        1.64446662002058        1.04841664792296
H            3.97513125842862        1.46222879314364       -0.67162582341018
H            2.44908602613672        2.20316046844648       -0.07067542075872
H            3.58946524355749       -1.83026396818266        0.04961430202445
H           -1.48819627995096        3.01321443246158       -0.04683699080337
H           -2.72642090212393        2.08492179004539       -0.91302964922476
H           -2.69662549006867        2.12276435129673        0.87838205449504
H           -1.30376709185550       -3.23762222867253        0.81877866862182
H           -1.27564783486329       -3.21536830574678       -0.96793631012474
H           -2.64114555066091       -2.48781319168270       -0.08609820761593
H            1.32735494974543       -3.03562000711838       -0.00415207865135
25
 energy: 13.667241410294 xtb: 6.6.1 (8d0f1dd)
C            3.19799354597923        1.47422116600433        0.10264049047457
N            2.42514969610318        0.08136245251424        0.08139800558965
C            2.65926211681776       -1.33224749156933        0.10654989952890
N            1.45360966427998       -2.04221653241119        0.02155359037726
C            0.43646191334140       -1.15857925533776       -0.01237197250898
C            1.00644525207901        0.12206709164322        0.01879663298313
C            0.18297310169522        1.26717208236823       -0.01226113113331
O            0.55201600622505        2.44425004761917       -0.02901406934080
N           -1.21026072333102        0.97321945225347       -0.03092041973547
C           -2.09248307116010        2.12159657876123       -0.02707356851327
C           -1.79196390891387       -0.25156004841738       -0.05132074567381
O           -2.99802471572473       -0.40538634383600       -0.07140538928859
N           -0.92858189301228       -1.37043047469395       -0.05274209838997
C           -1.57913030552695       -2.66505446815061       -0.07426415121140
H            3.68738501660698        1.72591493138347        1.04579049630677
H            3.96951723933323        1.54804961687227       -0.67340554953113
H            2.40956587728139        2.21600795148977       -0.06359014042957
H            3.58291182270008       -1.85876980535856        0.05211667292637
H           -1.45212231996922        2.99872246270018       -0.05607621038627
H           -2.71725212422983        2.07686303803669       -0.89544620354342
H           -2.65646492718420        2.13290820693727        0.89251126284955
H           -1.33383739761119       -3.24727553477338        0.81682425836453
H           -1.30450064258963       -3.22559102604717       -0.96958156932031
H           -2.65733924342460       -2.47243419338683       -0.08830212245865
H            1.35352459197876       -3.05395326982354        0.00156057871870
25
 energy: 28.209899045476 xtb: 6.6.1 (8d0f1dd)
C            3.22471772686064        1.56315879745235        0.12779831111707
N            2.42797027189462        0.03734787485387        0.03848193375194
C            2.64267473001683       -1.36296163709414        0.11612022245328
N            1.43837610721893       -2.07799845211687        0.03764364035742
C            0.42922968453892       -1.18473548744076       -0.01262149880975
C            1.01415091993312        0.09378722172848        0.01424637926188
C            0.19275555214759        1.24355612448886       -0.01274623207926
O            0.56435748159886        2.42275764437722       -0.03482096731822
N           -1.20001772929664        0.96048115198585       -0.03273643474796
C           -2.07305901938229        2.11634724169853       -0.02255988439130
C           -1.78879936764224       -0.26061233050538       -0.05295805369977
O           -2.99578326684009       -0.40425972157678       -0.07049204372540
N           -0.93379638394596       -1.38522717964705       -0.05399645308698
C           -1.59924495766717       -2.67242124417336       -0.07863182547066
H            3.69296803145353        1.86213725333036        1.05787425174731
H            3.97037267879806        1.62024898680482       -0.66554222384717
H            2.38189027047133        2.23603524313278       -0.05867668032023
H            3.56396595735850       -1.90115981532940        0.05567144507419
H           -1.42436638146694        2.98685803352564       -0.06509452868570
H           -2.72951181726035        2.06832442903454       -0.87132388545944
H           -2.61690915292647        2.14303473535847        0.91076951774297
H           -1.35735935621812       -3.25574364269092        0.81145538980156
H           -1.32783705724556       -3.23173695543131       -0.97492271180078
H           -2.67379183613774       -2.45944155427944       -0.09292178027765
H            1.33057413426046       -3.09147201083755        0.02483393623136
25
 energy: 39.523323990266 xtb: 6.6.1 (8d0f1dd)
C            3.33837697375150        1.85193499736331        0.12390575446978
N            2.38396872645198       -0.12976007135084        0.07189913841614
C            2.58911903594203       -1.42429086224453        0.10525236597359
N            1.40470718311414       -2.13624606433880        0.03378841845810
C            0.40246126234535       -1.21837153394061       -0.01523016999543
C            1.01658997863361        0.03509582522813        0.00966279127564
C            0.20917060745101        1.22935341350111       -0.02348458732257
O            0.57041797853445        2.38801012896194       -0.05458455954830
N           -1.18303899633751        0.95034456576287       -0.03523135198674
C           -2.05803825055579        2.10984591230964       -0.02148284782490
C           -1.78523339485508       -0.27112214488263       -0.05377154681517
O           -2.99092338053195       -0.39750999958361       -0.07002464166314
N           -0.95038589817483       -1.40344185821494       -0.05843275634020
C           -1.62691975213899       -2.67934676132181       -0.07967031457634
H            3.71385633447578        1.96041574758964        1.09299188594007
H            3.99677191635444        1.74768002405087       -0.69236786660519
H            2.39886134975749        2.32144630623833       -0.03145026595234
H            3.53730096999201       -1.93872366314713        0.06758780215532
H           -1.39589884216067        2.97079762008119       -0.08136431717048
H           -2.73904928713947        2.05018386963598       -0.84773973009639
H           -2.57410561339673        2.15021168825784        0.92440172164971
H           -1.38921118714852       -3.26349769728550        0.81158001198813
H           -1.36027125559922       -3.24056107226369       -0.97580687969928
H           -2.69699222822827       -2.44941437470567       -0.09240557499252
H            1.30307554145577       -3.14210619794451        0.02620428684891
25
 energy: 38.930608018354 xtb: 6.6.1 (8d0f1dd)
C            3.37031964055574        1.92887810148186        0.13902749718533
N            2.37776965561405       -0.16233767376356        0.07083140330552
C            2.57045627752967       -1.45264095628672        0.10606389739789
N            1.38554292026876       -2.16399028994090        0.03346877771523
C            0.39090952329450       -1.23891487676476       -0.01908232145281
C            1.01421788553914        0.01001968936563        0.00322273661721
C            0.21774741184852        1.21192915212590       -0.03060800010785
O            0.58402810269078        2.36527091348617       -0.06992062837708
N           -1.17410123118257        0.94114162757512       -0.03663554244967
C           -2.04238975142980        2.10631049451135       -0.01824197523755
C           -1.78393702741283       -0.27800248604430       -0.05482160082996
O           -2.99059532559124       -0.39041473075738       -0.06863067472596
N           -0.96081462781543       -1.41514965075919       -0.06302564184108
C           -1.64898993255318       -2.68450028182591       -0.08291842311872
H            3.75513671385360        2.04503944658086        1.10218366323181
H            3.98526795042574        1.82874878872607       -0.70231636676918
H            2.41589506391110        2.36680381241398       -0.00544361260133
H            3.51739417490656       -1.97473534580413        0.06915992546140
H           -1.36693975746036        2.95696504870832       -0.09669082689734
H           -2.75006419570385        2.03887381206755       -0.82322230878538
H           -2.53359179399765        2.16351188255506        0.94098044807350
H           -1.41694542212757       -3.27080102531741        0.80850766436441
H           -1.38806117289804       -3.24820000864304       -0.97877928832377
H           -2.71548490874117       -2.43705594529078       -0.09512168329844
H            1.28627370819405       -3.17088017879331        0.03274759840092
25
 energy: 37.978141574748 xtb: 6.6.1 (8d0f1dd)
C            3.41715553867721        1.99922395340216        0.14757907964944
N            2.36713984292721       -0.18972522434168        0.06779063821521
C            2.55093697843204       -1.47700690231334        0.10399992202852
N            1.36714577434978       -2.18999683903754        0.03173455642908
C            0.37814701202836       -1.25906332999189       -0.02281526263233
C            1.00748912064092       -0.01359964208306       -0.00270271754899
C            0.21967707488339        1.19440910979170       -0.03791414701799
O            0.59973383435728        2.34149624154331       -0.08150631935498
N           -1.16844935153223        0.93264752637335       -0.03779416744928
C           -2.02777783782336        2.10425810244474       -0.01496367949654
C           -1.78520275937165       -0.28446491881617       -0.05578011917018
O           -2.99312008310335       -0.38340933124672       -0.06672237612071
N           -0.97351121674032       -1.42604680436839       -0.06841695605765
C           -1.67154319738132       -2.69026512649746       -0.08673798426642
H            3.80749392958815        2.12795496796603        1.10661786118622
H            4.01591770102101        1.91338304934045       -0.70491275228685
H            2.44970801533509        2.40366829114536        0.00870194103836
H            3.50436043196032       -1.98114066887830        0.06738046488947
H           -1.33934936239496        2.94434034364556       -0.11561095296761
H           -2.76052796541242        2.02787664859583       -0.79781817900854
H           -2.49343685666228        2.17916100482112        0.95709014298531
H           -1.44513171449135       -3.27843118018500        0.80505223965876
H           -1.41555838499251       -3.25612803303133       -0.98213839021300
H           -2.73499497103203       -2.42717629164980       -0.09930720297392
H            1.27063880201583       -3.19841535840275        0.03775306931771
25
 energy: 37.319186439900 xtb: 6.6.1 (8d0f1dd)
C            3.46283330581784        2.06961850446748        0.15633585446535
N            2.35905021684393       -0.22096260057078        0.06281810047615
C            2.53421700525744       -1.50806940284402        0.09478117437520
N            1.34755867837022       -2.21641032711365        0.02818671664860
C            0.36443446390311       -1.27890820749192       -0.02608648636106
C            1.00144684009895       -0.03814287591133       -0.00788210899112
C            0.22182492407468        1.17505177963016       -0.04562651965158
O            0.61599530098106        2.31706963190271       -0.08957751240177
N           -1.16408719957492        0.92348214944951       -0.03956598202112
C           -2.01297182265875        2.10284540981953       -0.01265248931033
C           -1.78950544103561       -0.29102846670097       -0.05718193818264
O           -2.99876596741507       -0.37941138535820       -0.06478397590642
N           -0.98724845503574       -1.43735625155488       -0.07331650882674
C           -1.69372676848488       -2.69698032032420       -0.09116828432198
H            3.85234249870770        2.21503831076833        1.11290022520777
H            4.05585691194228        1.99637758654479       -0.70036355352753
H            2.48224737261350        2.43960780824691        0.02109174801946
H            3.48787340113739       -2.01597917940836        0.05221295310037
H           -1.31505151169666        2.93412342975895       -0.14071017152767
H           -2.77051960284313        2.01815936876691       -0.77178285170929
H           -2.45227196286712        2.19582692613437        0.97161475754236
H           -1.47310072369845       -3.28628589253065        0.80147430191236
H           -1.44178918686741       -3.26456081553448       -0.98584460561004
H           -2.75506154654344       -2.42226074861743       -0.10685162583000
H            1.24998897332630       -3.22561895048847        0.03918384677771
25
 energy: 36.561933772644 xtb: 6.6.1 (8d0f1dd)
C            3.50850204500338        2.14266208097297        0.16400398047923
N            2.35015039092051       -0.25090185237885        0.05703835522609
C            2.51572900481015       -1.53766869166492        0.08305905865309
N            1.32687831226383       -2.24145180563806        0.02390401272322
C            0.34961360744567       -1.29777437620909       -0.02902604835642
C            0.99432878746994       -0.06193305553096       -0.01227918770833
C            0.22370325801596        1.15527339838967       -0.05151930977431
O            0.63239536036308        2.29268710465970       -0.09445952611401
N           -1.16064971246228        0.91497475140033       -0.04161358344086
C           -2.00022786062997        2.10047495459619       -0.01098128573044
C           -1.79600796813030       -0.29545559750630       -0.05995007854388
O           -3.00603035252832       -0.37375842318283       -0.06430006869415
N           -1.00247338749680       -1.44734433085777       -0.07760752812309
C           -1.71615285880316       -2.70229026993813       -0.09667506500837
H            3.90136656357757        2.29669952393493        1.11894731620981
H            4.09206507659029        2.08178933358330       -0.69915554351321
H            2.51594713981707        2.47469946163587        0.02687128215987
H            3.46645409014147       -2.04587259837299        0.03931168021687
H           -1.30204362139585        2.92498562598141       -0.17525215864391
H           -2.78120238720534        2.00765211079524       -0.74479140271841
H           -2.41026514048868        2.21139024365663        0.98558361462023
H           -1.50054385655874       -3.29334605622767        0.79680458899713
H           -1.46761354071805       -3.27182061890155       -0.99028112794650
H           -2.77612328918923       -2.41934769751934       -0.11447253735148
H            1.22585617458015       -3.25075855664118        0.03922575277201
25
 energy: 35.692168826283 xtb: 6.6.1 (8d0f1dd)
C            3.55553132123159        2.21933522897829        0.16841762183102
N            2.34119494595016       -0.28148290991980        0.05194103823336
C            2.49759247069111       -1.56752912438112        0.06633984441304
N            1.30620565187206       -2.26609920106423        0.01844677426523
C            0.33498512767440       -1.31657289374955       -0.03240546585423
C            0.98742883529837       -0.08572349177666       -0.01628832679837
C            0.22531906991853        1.13581919007564       -0.05484290423998
O            0.64826153585467        2.26855164641753       -0.09510509504661
N           -1.15678983517553        0.90659378923421       -0.04433084984684
C           -1.98743767589496        2.09778503657675       -0.01394537365824
C           -1.80208212966448       -0.29998579222422       -0.06274312072041
O           -3.01265576415166       -0.36742047659778       -0.06441708380108
N           -1.01799781497431       -1.45693330873457       -0.08100192017239
C           -1.73915815597847       -2.70715235710658       -0.10195974160963
H            3.94784102294779        2.37934596585580        1.12434526463654
H            4.13741648581542        2.16240102477952       -0.69698898340019
H            2.55230097962290        2.50874480441763        0.02613254233075
H            3.44383049507700       -2.07753121584319        0.03579565325903
H           -1.29508135926662        2.91725636844388       -0.21126148617216
H           -2.78496690558492        2.00051083790224       -0.72931683214373
H           -2.37040967959315        2.22712488596957        0.99011118118684
H           -1.52845041556831       -3.30128144321148        0.79148954838582
H           -1.49454978935317       -3.27905129219108       -0.99478487317422
H           -2.79823885401824       -2.41887478292898       -0.12057817494329
H            1.19857683839584       -3.27418710439751        0.03503953921220
25
 energy: 35.076737167986 xtb: 6.6.1 (8d0f1dd)
C            3.59720528318272        2.29760611333842        0.17120364629924
N            2.33123679501729       -0.31183858718140        0.04653079286431
C            2.47984890043098       -1.59753493969672        0.05132747065387
N            1.28530712648948       -2.28982468477684        0.01307019492025
C            0.31982467322034       -1.33458376636307       -0.03421654743459
C            0.97932526357267       -0.10866461320243       -0.01804254462844
C            0.22289185389317        1.11736457422017       -0.05486477344186
O            0.66172868374348        2.24462919416041       -0.09223597649805
N           -1.15471416557740        0.89878038231022       -0.04709011678725
C           -1.97320165164639        2.09779988915753       -0.02190079746142
C           -1.80930416027182       -0.30390521786026       -0.06570037712466
O           -3.01990793391260       -0.36040276063203       -0.06584868255683
N           -1.03414074855624       -1.46632535263896       -0.08321442386412
C           -1.76166785859489       -2.71264097432386       -0.10673471110208
H            3.98850456717928        2.46534194574516        1.12775926327210
H            4.18067562308724        2.24280314242565       -0.69460293323531
H            2.58415528511378        2.54730007891602        0.02533351973082
H            3.42214190343530       -2.11111492260284        0.03735537017747
H           -1.28055430216445        2.90863417868599       -0.24479967850297
H           -2.76779631537825        2.01088596177824       -0.74385863964274
H           -2.33198633751336        2.24495636549168        0.98811925362536
H           -1.55511207073961       -3.31022891809232        0.78580684763841
H           -1.52048593663313       -3.28631061514680       -0.99931535013579
H           -2.82010838914753       -2.42057937425180       -0.12553183589491
H            1.16936933395050       -3.29625434681897        0.02698478978871
25