25
 energy: -42.090134144205 gnorm: 0.005820131816 xtb: 6.6.1 (8d0f1dd)
C            3.16131408279739        1.20495696249812        0.02390732385494
N            2.21136328247505        0.12573914167669        0.00393726999639
C            2.51886611915193       -1.17559048894488       -0.00511218336229
N            1.35907752219799       -1.87124751525384       -0.00346748549518
C            0.30382648128255       -1.00605864487640        0.00589448869002
C            0.84310485178497        0.27565931722921        0.01165924105512
C            0.00296533756214        1.45169285383605        0.00160235579058
O            0.38292385958826        2.59907193909629       -0.01272004557769
N           -1.35163793667266        1.10962697020700        0.00482371455653
C           -2.31909659676181        2.19437345084002       -0.00382467911399
C           -1.90656619795864       -0.15977834915526        0.00559001950021
O           -3.09423256679437       -0.33666572102925        0.00402684775012
N           -1.01773359707693       -1.25000596462492        0.00702901301687
C           -1.55240710112700       -2.59634415103161        0.00002958721592
H            3.65079601813833        1.25434859790468        0.99815387585542
H            3.92318850304709        1.04011546036198       -0.73681598580506
H            2.64279423782521        2.14471201095478       -0.16114062670245
H            4.88053873946736       -2.90315344387530       -0.08030733140191
H           -1.77848179119912        3.13777681930726        0.00241680667008
H           -2.94781356453988        2.12402830651312       -0.89265829482022
H           -2.96567727835347        2.12129212410792        0.87171187469379
H           -1.21952249036251       -3.13959210168067        0.88483994698865
H           -1.23696258393791       -3.12402730904489       -0.90052257434570
H           -2.63890438402249       -2.52321440572814        0.01086822265700
H            1.30870856758851       -2.87947731768800       -0.00874976376713
