72
 energy: 0.000000000000 xtb: 6.6.1 (8d0f1dd)
N           -1.47310921155849        2.74401293103706        2.22063921685122
C           -1.55658879776851        2.16490285539332        1.13274273951491
C           -2.74549199786261        2.05621232186130        0.23826248438941
C           -3.31377553111525        0.64333411542669        0.32332512650568
C           -4.30230156009016        0.24487110156316       -0.58026161703006
C           -4.85238763031941       -1.02286490450319       -0.53363588718165
O           -5.81419972815119       -1.48606034185536       -1.36157882725342
C           -6.39655633239252       -0.60827000183299       -2.29568474302620
C           -4.39972501531283       -1.94646102182611        0.44396929121966
O           -4.98748311285188       -3.16145997157803        0.41085992006324
C           -4.66362127904578       -4.10093827755394        1.40909127743729
C           -3.42072513477031       -1.54561384810496        1.33436546260297
C           -2.88302799614223       -0.26315800396994        1.27400150770375
C           -2.19303798107274        2.30467000305896       -1.18742977106749
C           -1.26651538239283        1.17243369445008       -1.65249429687285
C            0.01082524939134        1.09745454476277       -0.89354803499847
N            0.61779393476578       -0.02034948052406       -0.57705522512502
C            2.00145210352228       -0.02376006389122       -0.15611399603240
C            2.92554934655222       -0.53865282675074       -1.27700088804721
C            4.35756843073516       -0.43050757231754       -0.83075544324989
C            5.07346135469827        0.73206409086248       -1.03980965825901
C            6.38627986649936        0.84224441421807       -0.60344822702769
C            7.00047264773336       -0.20824756335880        0.05722314418200
O            8.26703657141718       -0.21011313101264        0.52410943644933
C            9.06912227848686        0.92943601033931        0.31863058007678
C            6.27039964270142       -1.40439753960823        0.28033466008274
O            6.94829939911432       -2.38012925705718        0.92751999079483
C            6.31537317745639       -3.61583200086742        1.15217711710877
C            4.96302794628964       -1.49347471867959       -0.16064430359178
C           -0.05511211367372       -1.29906247805359       -0.62085686319744
C           -3.86758037025447        3.07992600430699        0.58498060215443
C           -4.49286159663096        2.77383493050346        1.94313289484366
C           -3.39165179876499        4.52917666589254        0.54797523472093
H           -4.66030026466202        0.94509067363451       -1.31640568823548
H           -6.85037928558380        0.25803162192116       -1.80468845313260
H           -7.17287442604349       -1.18600110843259       -2.79318157561361
H           -5.66836817451085       -0.26952966318766       -3.04040255244073
H           -4.88416720672258       -3.71589460520039        2.40913542187496
H           -5.29223570620378       -4.96637458756866        1.20969236903657
H           -3.61139813139015       -4.39919835331056        1.35529357841967
H           -3.07077796610445       -2.21868765711333        2.10002662693138
H           -2.14562754426994        0.02067850696302        2.01001344383370
H           -3.02188875377605        2.38238012313952       -1.88813545054866
H           -1.65198530896729        3.25146700677685       -1.20556284570283
H           -1.81103374245520        0.23006524641044       -1.62116301628650
H           -0.99335688527853        1.37490212198123       -2.69443256973690
H           -0.67628064361333        1.65183887049447        0.61785727145403
H            0.63525841192517        1.98466369793744       -0.92314021190751
H            2.11132552493482       -0.65949692842762        0.72532613231274
H            2.30680473056284        0.98978251704176        0.11078972794250
H            2.76694198818247        0.06750735147374       -2.17075252200790
H            2.67954581369920       -1.57455627803457       -1.51167743520200
H            4.62169998552446        1.56295612048703       -1.56123579000624
H            6.92357674630170        1.75715815945204       -0.79119596719031
H            8.65159112996149        1.81001823324363        0.81701555159939
H            9.20136171144928        1.14042857828877       -0.74698991949293
H           10.03428838009630        0.69003240176163        0.76064937965836
H            7.05567174969094       -4.23621171795340        1.65347565939075
H            5.43848001056755       -3.50813558175093        1.79970565785717
H            6.02060041905269       -4.09420497120334        0.21253282636366
H            4.40102758497114       -2.40127266373392       -0.00490198249042
H           -0.22071299714579       -1.61775583601871       -1.65116008982042
H           -1.01972258008625       -1.24102717432227       -0.10935206830928
H            0.55899954147532       -2.04486085926761       -0.12333730421426
H           -4.63991875734388        2.95501092798550       -0.18098088071825
H           -3.76095216473977        2.90314704960906        2.73380821053058
H           -4.87457614030224        1.75695641518947        1.97884603101694
H           -5.31925552549014        3.45579210326349        2.12325564252114
H           -2.60025590131176        4.69225046143352        1.27368918226171
H           -3.03987406413880        4.81897652321898       -0.43870975059559
H           -4.22191740670577        5.18069648090034        0.80616693961239
H           -0.59832433787845        2.77744694953323        2.72958984441332
72
 energy: 1.539625287231 xtb: 6.6.1 (8d0f1dd)
N           -1.53695444747467        2.85132104762948        2.25021964875422
C           -1.58727604339897        2.16410662425467        1.18760129735248
C           -2.77250369418060        2.07419401706878        0.26692610450877
C           -3.34058972415858        0.66321679516406        0.34168406898381
C           -4.31670294648574        0.25366071026549       -0.56888826177491
C           -4.85760958556322       -1.01655638404764       -0.52860484025942
O           -5.81970621272166       -1.49086518693061       -1.37406564429457
C           -6.38516327678317       -0.61167897898992       -2.31171515536721
C           -4.41694145151207       -1.93262254361114        0.45118507574409
O           -5.00883690395156       -3.16303396138731        0.41340805934312
C           -4.68516020849046       -4.09109147651246        1.41612890547710
C           -3.45548942540286       -1.52645583140421        1.35533207497858
C           -2.92475570746166       -0.24213522614759        1.30012213659054
C           -2.22372981786203        2.32410417613699       -1.16438588750602
C           -1.30888575422317        1.20778077132381       -1.69918787019791
C           -0.03277257319738        1.13600950639469       -0.93093531613437
N            0.59150941839916       -0.07590491588572       -0.60098877949467
C            1.96012833064830       -0.08085088351456       -0.20419462517653
C            2.91714829203437       -0.58863808816544       -1.31060457641337
C            4.35584783741807       -0.47413604225502       -0.87273874139205
C            5.11101498559517        0.67200028202210       -1.06514885100267
C            6.42783496555293        0.77727081518337       -0.58259280649968
C            7.08899363222523       -0.20562908016560        0.17446224508202
O            8.39005970048837       -0.25247018623276        0.65246279675471
C            9.20949463564032        0.85727143535251        0.38214683993020
C            6.30667970516367       -1.36613632320471        0.27565576284558
O            7.04422983678520       -2.30385301495702        0.89831969450226
C            6.45513815006503       -3.53027980940513        1.13658085319983
C            4.99735689979570       -1.50485962756781       -0.18365464453355
C           -0.12013920811900       -1.31780653157266       -0.67210812908142
C           -3.90744310896417        3.08046225616024        0.59753315852605
C           -4.52711689553646        2.78123340934667        1.96170420471042
C           -3.44330378791759        4.53544697138816        0.55799902081446
H           -4.65915859269571        0.94769098078865       -1.31924119260463
H           -6.84384861286587        0.25677990266077       -1.82661355284806
H           -7.15676447810339       -1.18866422448512       -2.81977552525631
H           -5.64837769301931       -0.26977762850213       -3.04692970644437
H           -4.91418461117473       -3.70390963908337        2.41490067214499
H           -5.30777420561476       -4.96199441052783        1.21603550688719
H           -3.63026170179920       -4.38410840896126        1.37471305407977
H           -3.10604649021687       -2.20153724280637        2.12141651297258
H           -2.18676968583354        0.04439503335108        2.03262796181902
H           -3.06197871275507        2.44413336066557       -1.85502564058827
H           -1.65973965418363        3.25905778782264       -1.16473133727520
H           -1.85063068379324        0.26313504894477       -1.65378157948648
H           -1.10745173385894        1.42526116312953       -2.76092347199136
H           -0.72394007636331        1.63333172532182        0.72430924800037
H            0.63062204269906        1.98142563324883       -1.00778727408397
H            2.07084659909139       -0.71009963042276        0.68677081244218
H            2.25178525913632        0.93767151497423        0.06459940519440
H            2.72236014897086        0.00979802392846       -2.20485630210278
H            2.64476107402859       -1.62276788145995       -1.53865229342068
H            4.66439829118218        1.50150378755951       -1.60484589314081
H            6.95949496138886        1.67835940654041       -0.80682552180432
H            8.79084355568964        1.75305497796378        0.84769035496634
H            9.30727709946654        0.99924377013544       -0.69740718287518
H           10.20411656947562        0.67563918941299        0.79045938127507
H            7.24554073864039       -4.08653498136475        1.62981471673832
H            5.59038430361781       -3.41348585681664        1.79459219875625
H            6.16544429670783       -4.01429586699267        0.20057947633256
H            4.45109319208894       -2.42460680876571       -0.02094283430797
H           -0.30577385038454       -1.62598772176985       -1.70921796098232
H           -1.08393089366553       -1.24254107637024       -0.15869572738113
H            0.47455747537644       -2.08509273994242       -0.18166457467760
H           -4.68556912607388        2.95385584884275       -0.16544225265121
H           -3.78179928925334        2.91848393841157        2.73873744572152
H           -4.89361762886165        1.75795215899226        2.00413895959988
H           -5.36097725314047        3.45597046714198        2.14584023105532
H           -2.64376702226450        4.69208339336567        1.27574396784165
H           -3.09309295271705        4.81880140378934       -0.43164498901235
H           -4.27502889097282        5.18722703701126        0.81944191060220
H           -0.64549819149396        2.81676467548080        2.74542150565535
72
 energy: 13.599600329497 xtb: 6.6.1 (8d0f1dd)
N           -1.57551994997929        2.89790722057438        2.25989230402460
C           -1.60716976139694        2.17724709029805        1.21131845551004
C           -2.79239942774761        2.08481752034440        0.28257050572224
C           -3.35737167882705        0.67298250653605        0.35158376501401
C           -4.32568267562868        0.25884200464592       -0.56505060177688
C           -4.86320135853980       -1.01252642704331       -0.52644498727818
O           -5.82092103316913       -1.49168986229252       -1.38181006403122
C           -6.37687375729996       -0.61347158862153       -2.32355633099066
C           -4.43053253453612       -1.92443381536771        0.45719138106764
O           -5.02184443659236       -3.16059568872325        0.41649393777790
C           -4.70080290006578       -4.08349839894308        1.42207652520186
C           -3.47880426058606       -1.51547643555526        1.37028866976482
C           -2.95113581495223       -0.23050986024220        1.31686798496133
C           -2.24434795403683        2.34291117666746       -1.14897664863536
C           -1.34329112847248        1.22601422060025       -1.71410834247528
C           -0.05993678411686        1.14355227153912       -0.96221067341904
N            0.56446592892339       -0.09967178489714       -0.63237583311111
C            1.92970350975993       -0.11162355411406       -0.23566973986324
C            2.91250382479872       -0.62029940328164       -1.32922863631624
C            4.35700468782972       -0.49807187583498       -0.88597310700388
C            5.13863718899106        0.63751249611126       -1.07510110785367
C            6.45653026708196        0.74767789176561       -0.57381738472623
C            7.14348620290630       -0.19630442221128        0.23033049044876
O            8.45195626250005       -0.27308385143251        0.72907109650771
C            9.29867294561894        0.80875960371093        0.42147104654383
C            6.33317548540576       -1.34045865119408        0.27455264996284
O            7.11013759102578       -2.25816091540256        0.87488118342918
C            6.55686264063890       -3.48486904193107        1.13158287312727
C            5.02271974104657       -1.51145008547246       -0.18908783977302
C           -0.16893434709170       -1.32520848502555       -0.71221000712811
C           -3.93356112098966        3.08250952195883        0.60931014459690
C           -4.55026584168901        2.78501753414618        1.97581863757209
C           -3.47870285683584        4.54091696629482        0.56439137233968
H           -4.66013778272305        0.95007423555050       -1.32180038357611
H           -6.84033032266876        0.25566927174212       -1.84331853402798
H           -7.14430229874881       -1.19039696606022       -2.83880306799537
H           -5.63427878644965       -0.27054749506687       -3.05279386377223
H           -4.93705700141007       -3.69582918262625        2.41951515584944
H           -5.31902979907844       -4.95774001152718        1.22075699948827
H           -3.64447437999804       -4.37379482837410        1.38909342787911
H           -3.13295255717625       -2.18921061263805        2.13924974285467
H           -2.21821222045948        0.05987254409341        2.05289167284128
H           -3.08702472090551        2.48845774691489       -1.83153863624269
H           -1.66587215513864        3.26932757592257       -1.13704953739463
H           -1.88604921823704        0.28212816491846       -1.67231496849551
H           -1.17256657056571        1.45787252193338       -2.78120992100783
H           -0.75378950005226        1.62107614062697        0.78752275385544
H            0.62281790548028        1.96953164197670       -1.04949415147723
H            2.03712516184135       -0.74195945539345        0.65776428791386
H            2.21920207997573        0.90641025022913        0.03616660508092
H            2.70520337418346       -0.03099882616621       -2.22868984240970
H            2.63274236685985       -1.65538794421764       -1.55441085026046
H            4.70214672612047        1.46152054056748       -1.63565400849906
H            6.98341838011590        1.64245338418192       -0.82578400741107
H            8.89226593881572        1.72046067243057        0.86436752134161
H            9.38480927280312        0.90385704721666       -0.66467079847524
H           10.30609325215413        0.65083466576975        0.81518813074800
H            7.37799107480460       -4.00012319192833        1.61884118229286
H            5.69913454686512       -3.36369430939041        1.79653097175776
H            6.26808900928527       -3.97388230931854        0.19885734552876
H            4.49530928821051       -2.44428803308398       -0.02824118290503
H           -0.36547442343077       -1.62834163463718       -1.75068413786869
H           -1.13129755921114       -1.24167118429596       -0.19600945979814
H            0.41288228884579       -2.10790859946500       -0.22714663160081
H           -4.71277868440524        2.94912563911198       -0.15231968589707
H           -3.80166737012218        2.93094814437899        2.74777002699645
H           -4.90861135346626        1.75883687941531        2.02326702815919
H           -5.38848379822080        3.45450776137224        2.15957161874803
H           -2.67615781140204        4.69863871623182        1.27794107275654
H           -3.13303305675548        4.82179814092365       -0.42752338602726
H           -4.31225541918807        5.18951333209184        0.82800044331271
H           -0.67605133766109        2.84688652592939        2.74457567666666
72
 energy: 27.097173307694 xtb: 6.6.1 (8d0f1dd)
N           -1.60962940281997        2.93031481445093        2.26752270576857
C           -1.62957790625929        2.19559204802581        1.23081638528719
C           -2.81302669980052        2.09409706592226        0.29670414266397
C           -3.37384549898962        0.68105872781080        0.36134986011200
C           -4.33343432828089        0.26371031199853       -0.56308038587146
C           -4.86923242531550       -1.00864470406343       -0.52561057881912
O           -5.81989454457581       -1.49079132470312       -1.38916878976163
C           -6.36775677836602       -0.61435942757046       -2.33607341485024
C           -4.44466304969569       -1.91720124756758        0.46353659317486
O           -5.03382871813510       -3.15568838060154        0.42030192429856
C           -4.71792419787388       -4.07525865686247        1.42926934382949
C           -3.50195369029659       -1.50524256341441        1.38538761915786
C           -2.97663056879666       -0.21961930161645        1.33362335509554
C           -2.26423041477524        2.36280086338324       -1.13329585771919
C           -1.38030190123050        1.24252719560905       -1.72523563138262
C           -0.08585213757835        1.14031248370190       -0.99915509781077
N            0.53364400661085       -0.11824662249276       -0.67245664533298
C            1.89866512131582       -0.14097566711842       -0.26589921649086
C            2.90856280516401       -0.65107239260439       -1.34516882315698
C            4.36025159673789       -0.51866846356319       -0.89148913796521
C            5.16493274337518        0.60776800768951       -1.08134240392009
C            6.48385560508597        0.72930845549420       -0.56663101345698
C            7.19256760011729       -0.17905556060191        0.27652021343604
O            8.50246551852223       -0.28640517012158        0.79909672126882
C            9.38791041543494        0.75994498028200        0.45818990854671
C            6.36208363295223       -1.31525767710169        0.27527143919662
O            7.17770917621588       -2.21796737895108        0.84591302526819
C            6.66304638413796       -3.44769321305091        1.12876305267912
C            5.05033037010663       -1.51718190793245       -0.18899261835440
C           -0.22009544658642       -1.33201558217153       -0.75447186131153
C           -3.96030821357515        3.08498842149580        0.62201598261927
C           -4.57381402147888        2.78846801790908        1.99023974012901
C           -3.51527866133645        4.54636344516284        0.57028084871094
H           -4.66064009691741        0.95264145182252       -1.32488205189922
H           -6.83632685197626        0.25500550709533       -1.86087269627362
H           -7.13045494051698       -1.19155231529701       -2.85832742325694
H           -5.61925094984916       -0.27097143479203       -3.05931358350903
H           -4.96238432454233       -3.68690976428603        2.42468683780697
H           -5.33201516156399       -4.95216978392032        1.22593130683572
H           -3.66050412158863       -4.36337364144414        1.40512715996040
H           -3.16140721005642       -2.17646562721559        2.15850251909114
H           -2.25102450784587        0.07497363615545        2.07553809762571
H           -3.10918765770722        2.53336200196619       -1.80768863256445
H           -1.67154598701190        3.27993678119492       -1.10876699341633
H           -1.92739323705439        0.30156189418913       -1.69055712767187
H           -1.23220789607977        1.49017123782954       -2.79355836055387
H           -0.78192329864528        1.61334778278850        0.84615504170204
H            0.60988037768116        1.95396582195880       -1.08493966045591
H            1.99666107563095       -0.77503933026239        0.62717110486091
H            2.18752597954863        0.87526065265703        0.00969617718452
H            2.69494763303630       -0.07224791814300       -2.25165078019316
H            2.62768497889869       -1.68814869969340       -1.56819809925256
H            4.74112053671139        1.42400678309258       -1.66568408225292
H            7.00663150732929        1.61581770038337       -0.85226079347425
H            9.00040706282438        1.69042477388944        0.87658278704947
H            9.46848346964988        0.80692192346331       -0.63120667539495
H           10.40233405212854        0.61448527297079        0.84354535719130
H            7.51388583572346       -3.91945558887601        1.60921792821281
H            5.81342127340592       -3.32157732589857        1.80252043917681
H            6.37358319265646       -3.94400947961152        0.20099926164249
H            4.54573518295705       -2.46506473930681       -0.03274515240423
H           -0.42701978300570       -1.62894017757212       -1.79310756101354
H           -1.18040095343061       -1.23930638231287       -0.23458333052554
H            0.34844632327086       -2.12975480040878       -0.27560549944721
H           -4.73946385290925        2.94252873446580       -0.13830883794611
H           -3.82488903346711        2.94446211621959        2.75947879554671
H           -4.92410691254603        1.75981000349629        2.04282809219691
H           -5.41671453648934        3.45214782210892        2.17225555802105
H           -2.71064562299305        4.70885164677971        1.27989411935394
H           -3.17556168026694        4.82547670006881       -0.42401201605433
H           -4.35116210674755        5.19064571369148        0.83575526674807
H           -0.70736493539363        2.88256229087465        2.74613845043454
72
 energy: 38.106681086172 xtb: 6.6.1 (8d0f1dd)
N           -1.63519132288402        2.95612978028369        2.26807261690143
C           -1.65502303290099        2.21314438378696        1.24671002154267
C           -2.83348296148411        2.10109486666596        0.30879503885960
C           -3.39049312328921        0.68740102145468        0.37111150795451
C           -4.34076392268419        0.26824343678630       -0.56235743986240
C           -4.87645487997615       -1.00490742175724       -0.52590406181189
O           -5.81694026416636       -1.48843940213934       -1.39567100800416
C           -6.35866573678254       -0.61483938546605       -2.34911254782279
C           -4.45942708799527       -1.91114021067287        0.47015137764677
O           -5.04435788335973       -3.14833768170677        0.42447758506516
C           -4.73543829075548       -4.06702129257899        1.43699682769759
C           -3.52502114494203       -1.49562906677016        1.40005058811782
C           -3.00129526248156       -0.20926431482576        1.35006145133623
C           -2.28192811130661        2.38147217368311       -1.11781404335269
C           -1.41709931677536        1.25623397797531       -1.73230946238806
C           -0.10743825134196        1.12430829327903       -1.04070693470275
N            0.50084733350949       -0.12899643801298       -0.72127836093890
C            1.86840790513388       -0.16659866875624       -0.29452111920492
C            2.90619975844121       -0.67957543529034       -1.35650062519112
C            4.36673780696715       -0.53537804971159       -0.88831583112947
C            5.18804563883805        0.58373248265500       -1.08409424424536
C            6.50845753534638        0.72216244444267       -0.56233555911186
C            7.23248354020877       -0.15459416804016        0.31175549383105
O            8.53855396106024       -0.28929142961875        0.85735280234303
C            9.47205041646922        0.71421419093516        0.49049170604815
C            6.39273771405003       -1.29327210219497        0.27934431523796
O            7.24444174940553       -2.18767684787011        0.80918802807001
C            6.77005927570567       -3.42188668322357        1.12762690263455
C            5.07963766851142       -1.52201358108767       -0.18239910576852
C           -0.27038568433081       -1.33679707405179       -0.79752859968118
C           -3.98658403676650        3.08793768985586        0.63498747667122
C           -4.59665339302679        2.79184243460047        2.00446599778846
C           -3.55150806233901        4.55159532200154        0.57600998332645
H           -4.66142703587952        0.95532261287308       -1.32803699282131
H           -6.83266201634304        0.25427540028991       -1.87917455742361
H           -7.11594881766293       -1.19317908922197       -2.87764737640087
H           -5.60433049043835       -0.27162158634495       -3.06641678856822
H           -4.98865940006754       -3.67803358277523        2.42979210630088
H           -5.34569982404537       -4.94574089100611        1.23048202630370
H           -3.67728433107901       -4.35302986642809        1.42135022375143
H           -3.19106310421457       -2.16346982077743        2.17830317133538
H           -2.28465859784488        0.08943934937055        2.09950257528337
H           -3.12691298835134        2.57568840081003       -1.78433216656491
H           -1.67670123010047        3.28935467145134       -1.08103748986699
H           -1.97271785245989        0.32067838649507       -1.70740744129816
H           -1.28399918764973        1.52088141407178       -2.79801523728676
H           -0.80815728558216        1.60882731074963        0.89642259487795
H            0.59177950563500        1.93625050271783       -1.11235234752924
H            1.94934226983338       -0.80627621076467        0.59546063231177
H            2.15809458991317        0.84665241644296       -0.01443040490629
H            2.69384712008232       -0.11248348608626       -2.27181375419822
H            2.63066051867709       -1.71973694645272       -1.57742210712104
H            4.77881247803705        1.39008990472641       -1.69314921224401
H            7.02819014056152        1.59717208721227       -0.88574656662033
H            9.10912530210239        1.66481728433005        0.88231123454161
H            9.55475241211289        0.71369905002256       -0.59758770349884
H           10.48666888832720        0.56785735727786        0.87706522652828
H            7.64841642953101       -3.84725822447701        1.60048825255590
H            5.93035195900610       -3.29076297117992        1.81272785380453
H            6.47855163516228       -3.93040742171145        0.20808141740880
H            4.60047371250562       -2.48528072912768       -0.03340410614591
H           -0.48741790261004       -1.62666408556072       -1.83493656037603
H           -1.22751618832080       -1.23432266950090       -0.27250338245842
H            0.28587068180002       -2.14731699280755       -0.32559077372568
H           -4.76512293376140        2.93539892465644       -0.12365761422987
H           -3.84999097620321        2.95846013598538        2.77333029563707
H           -4.93944281527504        1.76124772845011        2.06228911622886
H           -5.44437243643839        3.44949480384432        2.18395079799592
H           -2.74558975032849        4.72204130929055        1.28205640281204
H           -3.21881664563556        4.83009430305103       -0.42056174011897
H           -4.39012306671725        5.19081536637734        0.84334388315387
H           -0.73893210747974        2.92246344604454        2.75395206283608
72
 energy: 45.440882469861 xtb: 6.6.1 (8d0f1dd)
N           -1.65131458785168        2.98503673641998        2.26063651806041
C           -1.68078032135069        2.22305699038697        1.26001516050767
C           -2.85231340154436        2.10619481780390        0.31962383884662
C           -3.40698763688190        0.69270161249948        0.38044276197422
C           -4.34831752188028        0.27233000569849       -0.56169138131988
C           -4.88486529819994       -1.00113807020374       -0.52663805602010
O           -5.81317131844451       -1.48580193542469       -1.40179095252615
C           -6.35013222461208       -0.61547983077424       -2.36272746111184
C           -4.47463080700724       -1.90571515684671        0.47679260956270
O           -5.05417687860073       -3.13987992246478        0.42840911020723
C           -4.75277198996122       -4.05927282500605        1.44459362153442
C           -3.54845930935164       -1.48612666342498        1.41386793997506
C           -3.02544610078419       -0.19912995633661        1.36582327090017
C           -2.29611182352058        2.39681455132497       -1.10234752623170
C           -1.45037867987184        1.26688777488329       -1.73643936203131
C           -0.12340830719363        1.09893198380437       -1.08241315698948
N            0.46990341392883       -0.13398276996935       -0.77589819839298
C            1.83983362507283       -0.18786556557534       -0.32249714670771
C            2.90771252199384       -0.70428386433208       -1.36115484118403
C            4.37691892647175       -0.54751383908266       -0.87668514710138