72
 energy: 0.000000000000 xtb: 6.6.1 (8d0f1dd)
N           -1.47310921155849        2.74401293103706        2.22063921685122
C           -1.55658879776851        2.16490285539332        1.13274273951491
C           -2.74549199786261        2.05621232186130        0.23826248438941
C           -3.31377553111525        0.64333411542669        0.32332512650568
C           -4.30230156009016        0.24487110156316       -0.58026161703006
C           -4.85238763031941       -1.02286490450319       -0.53363588718165
O           -5.81419972815119       -1.48606034185536       -1.36157882725342
C           -6.39655633239252       -0.60827000183299       -2.29568474302620
C           -4.39972501531283       -1.94646102182611        0.44396929121966
O           -4.98748311285188       -3.16145997157803        0.41085992006324
C           -4.66362127904578       -4.10093827755394        1.40909127743729
C           -3.42072513477031       -1.54561384810496        1.33436546260297
C           -2.88302799614223       -0.26315800396994        1.27400150770375
C           -2.19303798107274        2.30467000305896       -1.18742977106749
C           -1.26651538239283        1.17243369445008       -1.65249429687285
C            0.01082524939134        1.09745454476277       -0.89354803499847
N            0.61779393476578       -0.02034948052406       -0.57705522512502
C            2.00145210352228       -0.02376006389122       -0.15611399603240
C            2.92554934655222       -0.53865282675074       -1.27700088804721
C            4.35756843073516       -0.43050757231754       -0.83075544324989
C            5.07346135469827        0.73206409086248       -1.03980965825901
C            6.38627986649936        0.84224441421807       -0.60344822702769
C            7.00047264773336       -0.20824756335880        0.05722314418200
O            8.26703657141718       -0.21011313101264        0.52410943644933
C            9.06912227848686        0.92943601033931        0.31863058007678
C            6.27039964270142       -1.40439753960823        0.28033466008274
O            6.94829939911432       -2.38012925705718        0.92751999079483
C            6.31537317745639       -3.61583200086742        1.15217711710877
C            4.96302794628964       -1.49347471867959       -0.16064430359178
C           -0.05511211367372       -1.29906247805359       -0.62085686319744
C           -3.86758037025447        3.07992600430699        0.58498060215443
C           -4.49286159663096        2.77383493050346        1.94313289484366
C           -3.39165179876499        4.52917666589254        0.54797523472093
H           -4.66030026466202        0.94509067363451       -1.31640568823548
H           -6.85037928558380        0.25803162192116       -1.80468845313260
H           -7.17287442604349       -1.18600110843259       -2.79318157561361
H           -5.66836817451085       -0.26952966318766       -3.04040255244073
H           -4.88416720672258       -3.71589460520039        2.40913542187496
H           -5.29223570620378       -4.96637458756866        1.20969236903657
H           -3.61139813139015       -4.39919835331056        1.35529357841967
H           -3.07077796610445       -2.21868765711333        2.10002662693138
H           -2.14562754426994        0.02067850696302        2.01001344383370
H           -3.02188875377605        2.38238012313952       -1.88813545054866
H           -1.65198530896729        3.25146700677685       -1.20556284570283
H           -1.81103374245520        0.23006524641044       -1.62116301628650
H           -0.99335688527853        1.37490212198123       -2.69443256973690
H           -0.67628064361333        1.65183887049447        0.61785727145403
H            0.63525841192517        1.98466369793744       -0.92314021190751
H            2.11132552493482       -0.65949692842762        0.72532613231274
H            2.30680473056284        0.98978251704176        0.11078972794250
H            2.76694198818247        0.06750735147374       -2.17075252200790
H            2.67954581369920       -1.57455627803457       -1.51167743520200
H            4.62169998552446        1.56295612048703       -1.56123579000624
H            6.92357674630170        1.75715815945204       -0.79119596719031
H            8.65159112996149        1.81001823324363        0.81701555159939
H            9.20136171144928        1.14042857828877       -0.74698991949293
H           10.03428838009630        0.69003240176163        0.76064937965836
H            7.05567174969094       -4.23621171795340        1.65347565939075
H            5.43848001056755       -3.50813558175093        1.79970565785717
H            6.02060041905269       -4.09420497120334        0.21253282636366
H            4.40102758497114       -2.40127266373392       -0.00490198249042
H           -0.22071299714579       -1.61775583601871       -1.65116008982042
H           -1.01972258008625       -1.24102717432227       -0.10935206830928
H            0.55899954147532       -2.04486085926761       -0.12333730421426
H           -4.63991875734388        2.95501092798550       -0.18098088071825
H           -3.76095216473977        2.90314704960906        2.73380821053058
H           -4.87457614030224        1.75695641518947        1.97884603101694
H           -5.31925552549014        3.45579210326349        2.12325564252114
H           -2.60025590131176        4.69225046143352        1.27368918226171
H           -3.03987406413880        4.81897652321898       -0.43870975059559
H           -4.22191740670577        5.18069648090034        0.80616693961239
H           -0.59832433787845        2.77744694953323        2.72958984441332
72
 energy: -5.409728719138 xtb: 6.6.1 (8d0f1dd)
N           -1.51328371199392        2.71093090349358        2.30039574536587
C           -1.56878725135704        2.13994686839208        1.18156934651193
C           -2.76801323726281        2.06348485472038        0.27271630555000
C           -3.32293665448104        0.63757988841291        0.35368666966540
C           -4.29101114694560        0.22464173035526       -0.56651103993406
C           -4.83988129514810       -1.04262336293708       -0.52543148110954
O           -5.80629270511746       -1.51006663853442       -1.36540489293865
C           -6.37022394307117       -0.62977826437371       -2.30299185380478
C           -4.40452119877065       -1.96210749530727        0.45463609625377
O           -5.00672311871610       -3.18325274975140        0.42011132814550
C           -4.69197487549904       -4.11581580465522        1.42180551461170
C           -3.43314735490507       -1.56357297700248        1.35184405249368
C           -2.89621873835028       -0.28080237137257        1.29814999579035
C           -2.20332371911060        2.29245365376825       -1.16336050529175
C           -1.26525410488809        1.18412493846109       -1.67512697333671
C            0.01124097940822        1.13701980320557       -0.91789187089613
N            0.64131876672788       -0.04220398414784       -0.57492706862086
C            2.00984314320713       -0.02696062182625       -0.17501612849692
C            2.94303713712645       -0.54203718090748       -1.28914725121636
C            4.36575915043894       -0.43407533197591       -0.84518121952345
C            5.08202482110378        0.73087460649909       -1.04724424682036
C            6.39206080751225        0.84301924492564       -0.60505608881896
C            7.00224863850546       -0.20831936701352        0.05535326471993
O            8.28002425923728       -0.21101621042900        0.52830991771077
C            9.07158194204892        0.93007607094658        0.32247311838619
C            6.27493470156002       -1.39974909727836        0.27693290453547
O            6.95639897706221       -2.38308832559074        0.92991823367072
C            6.31802888147077       -3.61405149747225        1.14922910381502
C            4.97078656187962       -1.49325351396187       -0.16850039615013
C           -0.04417042803922       -1.29940594141486       -0.62750278361812
C           -3.88144137129352        3.13114310768341        0.57501167853694
C           -4.51592174909316        2.81342400252228        1.92490378913982
C           -3.38645193811110        4.57729381310062        0.55691794280343
H           -4.63322359750161        0.91979000519732       -1.31614595967172
H           -6.81972156434978        0.24402489021266       -1.81906463926556
H           -7.14811283053356       -1.20214012240203       -2.80617802673060
H           -5.63395733059099       -0.29707230048836       -3.04258419820865
H           -4.91449810272788       -3.72675378324149        2.42114311513107
H           -5.32457825703891       -4.97969705163933        1.22313679936506
H           -3.64118529515317       -4.42145876239465        1.37694446945864
H           -3.08848260225080       -2.24040249571062        2.11798024374781
H           -2.15137633632950       -0.00863670831588        2.02969038009873
H           -3.03751530062180        2.38174090753609       -1.85963037362071
H           -1.65590807495226        3.23685917867669       -1.17785636986284
H           -1.79360470134810        0.23296963258462       -1.64076646117611
H           -1.03201829695951        1.39618258338027       -2.72913381283363
H           -0.69094421153802        1.68077905421700        0.67539566731454
H            0.65418436522309        1.99771134774566       -0.97500982069443
H            2.13436153711024       -0.64829541311740        0.71863504139023
H            2.30185234893649        0.99362514100390        0.08374508621370
H            2.77485319329558        0.06104091575948       -2.18335149884177
H            2.68591954527741       -1.57736847802387       -1.51645111873292
H            4.62809753378685        1.56138329286317       -1.56766186005994
H            6.92945686100810        1.75917564417276       -0.79024262077826
H            8.65041152421258        1.81119825771749        0.81912473183959
H            9.20492497595528        1.14391545569121       -0.74351723815191
H           10.03818414167981        0.69550154790618        0.76552192112077
H            7.05586848143630       -4.23822617992878        1.65119806272498
H            5.43854259470162       -3.50676178646552        1.79397019822525
H            6.02274988300984       -4.09160091770643        0.20846500284104
H            4.40547441504662       -2.39902082173155       -0.01139272595407
H           -0.22181987899664       -1.62572957664764       -1.65903006706316
H           -1.00863832791662       -1.23396865407804       -0.11333282606129
H            0.56799779310746       -2.04665030747295       -0.12834071968868
H           -4.66749601584855        3.04971847254351       -0.18654277503254
H           -3.76354721635675        2.91666621827226        2.69633828400600
H           -4.90105928721804        1.79728514365079        1.92958454675711
H           -5.33854942848018        3.49437409791995        2.13063405032274
H           -2.58355480194477        4.71994063494354        1.27458315547246
H           -3.03973999584282        4.86999547719963       -0.43097117103148
H           -4.20374764493619        5.24356525608760        0.82849709840357
H           -0.60327739159254        2.69799287692527        2.76062259490317
72
 energy: -3.147009069740 xtb: 6.6.1 (8d0f1dd)
N           -1.53544193802060        2.64250089343233        2.36439174212986
C           -1.58840775100501        2.12779258189780        1.21759280686203
C           -2.79048065713911        2.06573031029622        0.30188201249392
C           -3.33394665599871        0.62729133224191        0.38324738234307
C           -4.28063373722174        0.20288796493963       -0.55590396030232
C           -4.83175641225274       -1.06366581679284       -0.52007433668238
O           -5.79305278644345       -1.53114698495543       -1.36733625473952
C           -6.34449892883426       -0.65003011014925       -2.31134327136681
C           -4.41131934650371       -1.98210278009636        0.46669522686109
O           -5.02174266389647       -3.19935016061454        0.43068750096044
C           -4.71971253108060       -4.13139090468383        1.43647125984255
C           -3.44442982102766       -1.58389822053608        1.36861854337612
C           -2.90749210927184       -0.30011916795727        1.32138851011534
C           -2.21343662013327        2.28433442800094       -1.14043873155847
C           -1.26892139304184        1.19110035590177       -1.68460353519038
C            0.01857943206583        1.14787941967264       -0.94611743268844
N            0.64999509919733       -0.03522653762257       -0.59747536027235
C            2.01660414270324       -0.01866628297033       -0.19361774384824
C            2.95165251113253       -0.54334970772896       -1.30006593614216
C            4.37282387925952       -0.43513250594041       -0.85356364403901
C            5.08875213238118        0.73042836816521       -1.05308017272250
C            6.39774970009978        0.84351415921775       -0.60734356914573
C            7.00765845341685       -0.20782273578427        0.05354758683023
O            8.28461236102505       -0.21036708104576        0.52988789992478
C            9.07431455350865        0.93210180031910        0.32583632645924
C            6.28012245632028       -1.39903849601976        0.27365413539853
O            6.96031985683554       -2.38269158992835        0.92904498407567
C            6.32026486783332       -3.61314725557966        1.14606887812724
C            4.97668206593063       -1.49321394690740       -0.17458668550486
C           -0.03840025843564       -1.29159636242246       -0.63764578966757
C           -3.89298861606455        3.18648727177033        0.56805432416915
C           -4.53787274086293        2.85195827497925        1.90634916981738
C           -3.37334351142844        4.62497324306067        0.56630208966590
H           -4.60914081634973        0.89329007810390       -1.31644824585092
H           -6.78967013485692        0.22942626709301       -1.83345506700185
H           -7.12303393836350       -1.21787642977259       -2.81868064373937
H           -5.60025240849369       -0.32497817843208       -3.04604818317253
H           -4.94497131431396       -3.73789389117702        2.43350286591848
H           -5.35710781933581       -4.99159830602190        1.23670316130534
H           -3.67107840596886       -4.44477357683820        1.39881788370070
H           -3.10655769988234       -2.26165133620804        2.13704749450589
H           -2.15982355681459       -0.03827525664955        2.05332736109514
H           -3.05148457903020        2.38046096904299       -1.83155544980286
H           -1.66342797656129        3.22790039723779       -1.15166333254829
H           -1.78402987052975        0.23278614356019       -1.66003603483119
H           -1.05634508101185        1.41677665664570       -2.74265096240888
H           -0.69718993978287        1.71658529657478        0.70724448483163
H            0.66384821389768        2.00508006531021       -1.01276432312578
H            2.14490673694033       -0.63070388460813        0.70687055674380
H            2.30436386601307        1.00408830646309        0.05817572453716
H            2.78418413981898        0.05450061230286       -2.19780762341276
H            2.69166709887497       -1.57943279740082       -1.52058645383740
H            4.63492243392085        1.56060948391096       -1.57405619237308
H            6.93453140215895        1.76069666100021       -0.78951680759735
H            8.65025129019393        1.81248082781675        0.82167203397202
H            9.20884078253605        1.14660563570554       -0.73991672177087
H           10.04076172173671        0.69965192416796        0.77033352251738
H            7.05659281544607       -4.23890711916754        1.64822579452532
H            5.43936288128386       -3.50586966355232        1.78910173088726
H            6.02599624259766       -4.08952482527358        0.20434726675750
H            4.40990057781192       -2.39795637506873       -0.01759626356183
H           -0.22346080250922       -1.62748743813468       -1.66578873482931
H           -1.00025167083821       -1.22362031115659       -0.11763817444589
H            0.57574096827238       -2.03609219357441       -0.13695967053434
H           -4.68461017426818        3.14681542926445       -0.19379919477323
H           -3.77362280505805        2.93048556194578        2.66459650551834
H           -4.93075436058401        1.83919687202291        1.88152885394090
H           -5.35386097625039        3.53309602424165        2.13536235569404
H           -2.56170577320739        4.75057776975766        1.27711938238321
H           -3.03677280215317        4.92305134523974       -0.42347479653125
H           -4.17766725607611        5.30306312234149        0.85276148216052
H           -0.60986725010847        2.62431238990664        2.79508796285945
72
 energy: 1.044735776924 xtb: 6.6.1 (8d0f1dd)
N           -1.55576076573906        2.56947959642061        2.42404920308472
C           -1.60697270399924        2.11366350251548        1.25206776376974
C           -2.81215623366018        2.06540767065764        0.33139892778296
C           -3.34499819196715        0.61526397113268        0.41135184366095
C           -4.27035097851322        0.18021716721177       -0.54633503911785
C           -4.82391032745834       -1.08526680549408       -0.51495406742951
O           -5.77961923412966       -1.55255814288583       -1.36990158953319
C           -6.31836307911710       -0.67011753788862       -2.31995478020376
C           -4.41830710404004       -2.00181554769978        0.47908107672723
O           -5.03631543765612       -3.21528682854488        0.44153806982152
C           -4.74686200798587       -4.14646461706829        1.45133860756972
C           -3.45630062939386       -1.60354023555818        1.38613892376041
C           -2.91962987622825       -0.31903967710610        1.34494788639232
C           -2.22547180639493        2.27628092027118       -1.11695412436663
C           -1.27378226073712        1.19888605030619       -1.69402781741763
C            0.02535087683633        1.15824236219359       -0.97623990464075
N            0.65814895835597       -0.02769739888558       -0.62197506551491
C            2.02293577006153       -0.00962237656990       -0.21214003547654
C            2.96018379263075       -0.54449258452944       -1.31091311855394
C            4.37996227911051       -0.43607783409515       -0.86194499129088
C            5.09558963139218        0.73007658134592       -1.05885102056664
C            6.40359197426688        0.84406715900483       -0.60979970103424
C            7.01323368404813       -0.20736087217551        0.05149296575805
O            8.28932259237231       -0.20957208042933        0.53132594030546
C            9.07692395535042        0.93440764579296        0.32921187264183
C            6.28555894286564       -1.39851764554604        0.26988038188794
O            6.96440932013825       -2.38244707019365        0.92767881973577
C            6.32239931333519       -3.61229609092678        1.14231624267589
C            4.98274471279768       -1.49321226689060       -0.18098368388910
C           -0.03280218646255       -1.28363937590804       -0.64768717259610
C           -3.90304231783890        3.24320116729310        0.56251961337352
C           -4.56147333543537        2.89148718122676        1.88786099252097
C           -3.35890515414427        4.67282472831329        0.57643069359621
H           -4.58542256137448        0.86511736135714       -1.31819089219447
H           -6.75862431574075        0.21493103195245       -1.84763049346096
H           -7.09797639137241       -1.23279790974502       -2.83144475198612
H           -5.56642770769966       -0.35271687953961       -3.04994228773882
H           -4.97460773091770       -3.74832147147931        2.44597474706573
H           -5.38967006309822       -5.00238333825955        1.25034768109829
H           -3.70061827767174       -4.46821700710279        1.42071963395673
H           -3.12371858845569       -2.28179525961249        2.15638937085589
H           -2.16999040512345       -0.06573787620304        2.07739525116862
H           -3.06619627191497        2.38024008935251       -1.80395314093677
H           -1.67361192098953        3.21949898927444       -1.12405172802877
H           -1.77405393718147        0.23282103264359       -1.67998154796856
H           -1.08083578921464        1.43827297082070       -2.75442209355968
H           -0.69998463174221        1.76253602250647        0.73160039818440
H            0.67413779052537        2.01103055679051       -1.05117677873049
H            2.15514401693476       -0.61251826938249        0.69505821142426
H            2.30753197497068        1.01497476119933        0.03303331502215
H            2.79353620235225        0.04812234516366       -2.21212855102189
H            2.69763452173155       -1.58144447497222       -1.52473995059846
H            4.64167448749323        1.55996789515117       -1.58021361084630
H            6.93969723439172        1.76233915666064       -0.78885423436163
H            8.64999507577245        1.81394862150865        0.82434679188564
H            9.21264473440818        1.14957917179968       -0.73630755041502
H           10.04319621872754        0.70409543800275        0.77514079918886
H            7.05709419964296       -4.23978534574222        1.64459679717955
H            5.44009167049269       -3.50495721364827        1.78363287106547
H            6.02918672399136       -4.08743075681057        0.19960404192160
H            4.41450677269441       -2.39700695122512       -0.02411504808619
H           -0.22401293524317       -1.62903831903799       -1.67252022550839
H           -0.99230956996476       -1.21277347095954       -0.12261560751775
H            0.58301632319961       -2.02520082216688       -0.14456642538443
H           -4.69585136357972        3.24492847564477       -0.20224877670714
H           -3.78970854078828        2.94325312781381        2.63580583883351
H           -4.96516232946297        1.88394903365085        1.83487625935933
H           -5.36859788387043        3.57462714479572        2.13920934992070
H           -2.53765667838553        4.78172762017797        1.27860934972081
H           -3.03516064573499        4.97496261963597       -0.41646243528810
H           -4.15029825419085        5.36124806964830        0.87908748012937
H           -0.61619964095901        2.54819594973754        2.82627103420282
72
 energy: 6.698081245664 xtb: 6.6.1 (8d0f1dd)
N           -1.57651711790579        2.49050828763913        2.47857419384827
C           -1.62266452596560        2.09844331044230        1.28234044537631
C           -2.82510474106146        2.06895551343999        0.34838049768232
C           -3.35181305273069        0.60341073199949        0.43673400980144
C           -4.25841219657780        0.15838399326226       -0.53640176787792
C           -4.81517757228516       -1.10588344129234       -0.50911938554473
O           -5.76511374334975       -1.57311207922401       -1.37173200206077
C           -6.29214892095218       -0.69041680820872       -2.32806793067544
C           -4.42482618973246       -2.02090201126485        0.49177642038830
O           -5.05111673394167       -3.23037090508145        0.45273557820251
C           -4.77505311903641       -4.16160522189829        1.46585411315635
C           -3.46770156402967       -1.62257509765677        1.40391160271473
C           -2.93049561549837       -0.33727357597116        1.36835208508764
C           -2.23513430905194        2.27015287009536       -1.09880159742592
C           -1.27846929598539        1.20665982304958       -1.70520219545627
C            0.03197123299056        1.16899353589758       -1.00842273641995
N            0.66547375062141       -0.01899920506313       -0.64723458671357
C            2.02855846007785        0.00070735659579       -0.23103645626762
C            2.96828580662924       -0.54496372945423       -1.32175302142937
C            4.38682432894977       -0.43681119312675       -0.87013056457407
C            5.10236210530836        0.72973531541378       -1.06467434806498
C            6.40936068913684        0.84453467547588       -0.61238121576324
C            7.01862788571721       -0.20693150283109        0.04952828624664
O            8.29392978223910       -0.20893067248320        0.53266775291754
C            9.07960179193431        0.93642569336921        0.33250729601059
C            6.29069988057457       -1.39801969117230        0.26622452104461
O            6.96835195316619       -2.38222431623960        0.92612689469711
C            6.32456364173954       -3.61148562241756        1.13900412679037
C            4.98842315088268       -1.49310661972291       -0.18711910203982
C           -0.02790287964445       -1.27473196342334       -0.65817228617129
C           -3.91234716192901        3.30114405885379        0.55634287275357
C           -4.58392381244998        2.93027251475483        1.86858949730567
C           -3.34450980055914        4.72087054996708        0.58643502134512
H           -4.56046934467639        0.83803248957980       -1.31878536149124
H           -6.72856796814855        0.19995043621361       -1.86195878786436
H           -7.07234186268598       -1.24913195969070       -2.84308114262972
H           -5.53302181565662       -0.38079704775212       -3.05373413779821
H           -5.00563468555880       -3.75978912833546        2.45832367275639
H           -5.42307296327569       -5.01326329361774        1.26290026912979
H           -3.73128384910034       -4.49168663582062        1.44239741296264
H           -3.14187831164469       -2.30152442168778        2.17658960932544
H           -2.17893046851788       -0.09357562053978        2.10173155566549
H           -3.08079838734579        2.37999953592235       -1.77865012522728
H           -1.68201613042559        3.21289202572564       -1.09954286313909
H           -1.76426471151442        0.23297002584044       -1.70039553518188
H           -1.10660510996079        1.46127690587241       -2.76652839137485
H           -0.69927363287280        1.81454142387928        0.75387160170176
H            0.68467664168261        2.01704946577793       -1.09038810348530
H            2.16341293132335       -0.59289282175350        0.68293843125732
H            2.31068967188165        1.02703200546226        0.00745246651104
H            2.80315078151113        0.04203871055997       -2.22672918259070
H            2.70319602186392       -1.58274910948363       -1.52878666028075
H            4.64854708963633        1.55921837292276       -1.58678125877780
H            6.94501391302572        1.76360018279029       -0.78907888097947
H            8.64985095741556        1.81513571360843        0.82688767669811
H            9.21677376203358        1.15220838040945       -0.73276693505350
H           10.04556105343682        0.70822203616402        0.78013649817783
H            7.05779251642873       -4.24032335024858        1.64166552518280
H            5.44093727345948       -3.50400970319217        1.77868472887268
H            6.03242182161545       -4.08582986917952        0.19553830188273
H            4.41877936387507       -2.39603871807692       -0.03045314551569
H           -0.22543218765698       -1.62874005008423       -1.67979868234433
H           -0.98509013467124       -1.20139120802294       -0.12800357626998
H            0.58957368015993       -2.01356895458929       -0.15279852554229
H           -4.70607777844224        3.34257630568772       -0.20976984922976
H           -3.80723679273017        2.95480116969815        2.60748989972480
H           -4.99715790546498        1.92827199388348        1.78690900461904
H           -5.38298368411229        3.61388781032242        2.14369465419919
H           -2.51492462057351        4.81189168016997        1.28065092420797
H           -3.03127787895812        5.02744088554704       -0.40861617724149
H           -4.12207145504354        5.41967448313994        0.90446960909929
H           -0.62529601590419        2.47179510021907        2.85592848150631
72
 energy: 14.378204538321 xtb: 6.6.1 (8d0f1dd)
N           -1.59256785769991        2.40743344253200        2.52986975748744
C           -1.63128607692033        2.07975986793135        1.31284392800382
C           -2.82759653127656        2.05148452377093        0.37350936665184
C           -3.35827535391705        0.58555320515040        0.46300926805580
C           -4.24648041119657        0.13522955324042       -0.52650603887348
C           -4.80708131857335       -1.12721519004280       -0.50335825995895
O           -5.75113734911550       -1.59376042870679       -1.37383100323666
C           -6.26618666689581       -0.71083714620095       -2.33663498873848
C           -4.43187916838262       -2.04080676142986        0.50420830584094
O           -5.06642886181419       -3.24610674710765        0.46400153964123
C           -4.80317142515685       -4.17639651872394        1.48095077273515
C           -3.47969372087636       -1.64417045552886        1.42204015666892
C           -2.94107859386804       -0.35964480633394        1.39265443453784
C           -2.24381518550122        2.26050447367569       -1.07706756742643
C           -1.28323784976887        1.21417606301212       -1.71673591761615
C            0.03829739030277        1.17958079017418       -1.04148168590681
N            0.67209385755866       -0.00987459991841       -0.67302331315267
C            2.03389499749272        0.01123812387903       -0.25029029016498
C            2.97621363837377       -0.54526224002833       -1.33278186026482
C            4.39363118092359       -0.43738680389228       -0.87832557995115