72
 energy: 0.000000000000 xtb: 6.6.1 (8d0f1dd)
N           -1.47310934822924        2.74401318561852        2.22063942287560
C           -1.55658894218425        2.16490305624665        1.13274284460745
C           -2.74549225258129        2.05621251263064        0.23826250649470
C           -3.31377583855761        0.64333417511334        0.32332515650284
C           -4.30230195924506        0.24487112428158       -0.58026167086503
C           -4.85238808050968       -1.02286499940159       -0.53363593669082
O           -5.81420026757557       -1.48606047972767       -1.36157895357670
C           -6.39655692584623       -0.60827005826649       -2.29568495601309
C           -4.39972542350640       -1.94646120241305        0.44396933240983
O           -4.98748357557592       -3.16146026488900        0.41085995818162
C           -4.66362171172287       -4.10093865802695        1.40909140816864
C           -3.42072545213514       -1.54561399150247        1.33436558640148
C           -2.88302826362110       -0.26315802838497        1.27400162590187
C           -2.19303818453636        2.30467021687947       -1.18742988123374
C           -1.26651549989641        1.17243380322503       -1.65249445018642
C            0.01082525039567        1.09745464658138       -0.89354811789923
N            0.61779399208289       -0.02034948241203       -0.57705527866251
C            2.00145228921113       -0.02376006609561       -0.15611401051620
C            2.92554961797610       -0.53865287672537       -1.27700100652360
C            4.35756883501756       -0.43050761225877       -0.83075552032494
C            5.07346182539911        0.73206415878124       -1.03980975472950
C            6.38628045899965        0.84224449235903       -0.60344828301384
C            7.00047329721665       -0.20824758267940        0.05722314949100
O            8.26703733840855       -0.21011315050632        0.52410948507466
C            9.06912311989339        0.92943609656965        0.31863060963839
C            6.27040022445068       -1.40439766990411        0.28033468609137
O            6.94830004375713       -2.38012947787858        0.92752007684741
C            6.31537376337817       -3.61583233633369        1.15217722400438
C            4.96302840674480       -1.49347485723979       -0.16064431849589
C           -0.05511211878686       -1.29906259857679       -0.62085692079872
C           -3.86758072907722        3.07992629005348        0.58498065642721
C           -4.49286201346546        2.77383518785172        1.94313307512182
C           -3.39165211343248        4.52917708609625        0.54797528556046
H           -4.66030069703099        0.94509076131725       -1.31640581036773
H           -6.85037992114187        0.25803164586058       -1.80468862056629
H           -7.17287509152171       -1.18600121846629       -2.79318183475679
H           -5.66836870040540       -0.26952968819383       -3.04040283452035
H           -4.88416765986127       -3.71589494995018        2.40913564538747
H           -5.29223619720187       -4.96637504833431        1.20969248126828
H           -3.61139846644506       -4.39919876145526        1.35529370415983
H           -3.07077825100221       -2.21868786295666        2.10002682176568
H           -2.14562774333496        0.02067850888151        2.01001363031684
H           -3.02188903413801        2.38238034416975       -1.88813562572432
H           -1.65198546223364        3.25146730843841       -1.20556295755141
H           -1.81103391047759        0.23006526775522       -1.62116316669324
H           -0.99335697743926        1.37490224954061       -2.69443281971844
H           -0.67628070635666        1.65183902374723        0.61785732877701
H            0.63525847086258        1.98466388206871       -0.92314029755375
H            2.11132572081740       -0.65949698961381        0.72532619960637
H            2.30680494458141        0.98978260887088        0.11078973822125
H            2.76694224489122        0.06750735773687       -2.17075272340394
H            2.67954606229959       -1.57455642411728       -1.51167757545099
H            4.62170041431221        1.56295626549351       -1.56123593485311
H            6.92357738865082        1.75715832247601       -0.79119604059515
H            8.65159193263071        1.81001840117181        0.81701562739969
H            9.20136256512460        1.14042868409438       -0.74698998879646
H           10.03428931104811        0.69003246578081        0.76064945022918
H            7.05567240429544       -4.23621211097668        1.65347581279537
H            5.43848051513375       -3.50813590722545        1.79970582482858
H            6.02060097762632       -4.09420535105165        0.21253284608183
H            4.40102799328555       -2.40127288651695       -0.00490198294521
H           -0.22071301762289       -1.61775598610935       -1.65116024301020
H           -1.01972267469312       -1.24102728946113       -0.10935207845464
H            0.55899959333766       -2.04486104898380       -0.12333731565713
H           -4.63991918782192        2.95501120214274       -0.18098089750912
H           -3.76095251366987        2.90314731895452        2.73380846416528
H           -4.87457659255110        1.75695657819473        1.97884621460846
H           -5.31925601899505        3.45579242388173        2.12325583951056
H           -2.60025614255587        4.69225089676674        1.27368930043085
H           -3.03987434616939        4.81897697030947       -0.43870979129779
H           -4.22191779840287        5.18069696155015        0.80616701440619
H           -0.59832439338922        2.77744720721660        2.72959009765665
72
 energy: -4.408627862347 xtb: 6.6.1 (8d0f1dd)
N           -1.48735715760647        2.71308347196309        2.27098466048759
C           -1.56581344123139        2.13150460829559        1.16873293714143
C           -2.75729912834775        2.05588735377086        0.26061317897262
C           -3.31304213327900        0.63201571277888        0.33990506471391
C           -4.28904676107546        0.22310210070179       -0.57195179971360
C           -4.84205079950780       -1.04322234701860       -0.52749359007404
O           -5.80577489127737       -1.50809085381746       -1.36305785773430
C           -6.37158885876438       -0.62864592387783       -2.30316704099049
C           -4.40495151138431       -1.96387394090153        0.45451260121837
O           -5.00543993424122       -3.18085284322356        0.42076474008953
C           -4.69245595938171       -4.11691149715821        1.42294779029906
C           -3.43212370051495       -1.56349408128590        1.35011144335953
C           -2.89054344260645       -0.28124069259772        1.29106841648300
C           -2.19867581468298        2.29087504558811       -1.16751299451267
C           -1.26470668644144        1.18506511311524       -1.68337097012772
C            0.01231807711171        1.12565312160296       -0.91706958260623
N            0.63523782258383       -0.03333308248824       -0.58115215574965
C            2.00991309736227       -0.02617925153098       -0.17174749230774
C            2.93941171247776       -0.54126997498172       -1.28789282346729
C            4.36643083929819       -0.43375452922071       -0.84650869955371
C            5.08135825133764        0.73143829784153       -1.04840467296144
C            6.39073145227419        0.84311419163586       -0.60495089706510
C            7.00296364902273       -0.20774498047778        0.05661446835539
O            8.27646178302137       -0.21055461293722        0.52779565486767
C            9.07205888308374        0.93075202088632        0.32214901062313
C            6.27390069220024       -1.40181356014655        0.27797807584580
O            6.95432722912302       -2.38158894310385        0.92855393362045
C            6.31782348232867       -3.61488444917868        1.14941299803481
C            4.97009581128309       -1.49359160426031       -0.16859069223195
C           -0.04690016404298       -1.29975006109736       -0.62493371190444
C           -3.87769530468415        3.12060187947860        0.57524190326278
C           -4.51138082150631        2.80953205676928        1.92372736719388
C           -3.39246145896929        4.57142427405808        0.55482414890492
H           -4.63274280277301        0.91794013408749       -1.31928809726378
H           -6.82031300415651        0.24437428040132       -1.81851382792865
H           -7.14940955492012       -1.20162998357857       -2.80483895815056
H           -5.63440595932009       -0.29776481543679       -3.04247009785026
H           -4.91485485377561       -3.72697269445876        2.42125204791687
H           -5.32579463325067       -4.97936573158539        1.22285203596043
H           -3.64166112788210       -4.42164205592554        1.37647173398418
H           -3.08901358787705       -2.23951218643458        2.11791167789250
H           -2.14871577634877       -0.00502437394035        2.02442399249444
H           -3.03367581735383        2.37814820947944       -1.86174530139304
H           -1.65504793571311        3.23608114292313       -1.17818325947256
H           -1.79674237610626        0.23547338761383       -1.64680902833345
H           -1.03127288996213        1.40177556875300       -2.73508140718723
H           -0.68033340339991        1.67290489798588        0.64421739065504
H            0.64949376584530        1.99773063588387       -0.98318951082797
H            2.12332304052060       -0.64961168725602        0.71923756906564
H            2.30391939404998        0.99410357517688        0.08587853582230
H            2.77327488719773        0.06245270654979       -2.18149393114854
H            2.68500987003486       -1.57672403231707       -1.51510731836028
H            4.62739915648223        1.56289162605584       -1.56681246450380
H            6.92857280927884        1.75884067015656       -0.79074510744446
H            8.65083051447315        1.81108895223847        0.81891005696465
H            9.20455261518341        1.14304119653315       -0.74378306933982
H           10.03752818852946        0.69419793792066        0.76564667633889
H            7.05633779070861       -4.23720586919844        1.65190702754980
H            5.43867162117363       -3.50703417451617        1.79402681463998
H            6.02309060202744       -4.09216140673451        0.20875714200267
H            4.40532212599335       -2.39961559959509       -0.01079252638583
H           -0.22140125669991       -1.62171960811824       -1.65614513423477
H           -1.01064486983012       -1.23176012952403       -0.11194830512645
H            0.56413436716348       -2.04603970337409       -0.12497333386977
H           -4.67168660155841        3.04200469514957       -0.17900304910558
H           -3.76304627523577        2.91394164633894        2.70073203018177
H           -4.89814695883063        1.79517592578639        1.93005128769448
H           -5.33539619204196        3.48690225324712        2.12943264890980
H           -2.59263607594072        4.70962332039121        1.27433152116590
H           -3.04282408656663        4.86693065974218       -0.43121814501933
H           -4.20424177282489        5.24364705837201        0.82700003305890
H           -0.59927895237609        2.71055332409839        2.76345477063416
72
 energy: -1.086154576581 xtb: 6.6.1 (8d0f1dd)
N           -1.51601526564576        2.63844693181374        2.35163169681275
C           -1.57469715485633        2.10482735565395        1.20748095165559
C           -2.77593805123875        2.05599067173329        0.28886243963036
C           -3.31677605184882        0.61449862644434        0.37132030909974
C           -4.26857818062785        0.18506596863793       -0.55745005194255
C           -4.82433929700185       -1.07983764090794       -0.51695657933320
O           -5.78765798065547       -1.54697421090207       -1.36621126722395
C           -6.32496096336217       -0.66594556376845       -2.31763532457713
C           -4.41435935539142       -1.99540490566357        0.47398354170890
O           -5.03656467618795       -3.21294275955733        0.44039251357505
C           -4.74519567882576       -4.14490116550228        1.44906317119829
C           -3.44989412862092       -1.59553336785487        1.37704073464752
C           -2.90463229956711       -0.31277064478640        1.32139393978897
C           -2.21008439291194        2.27718502789447       -1.14043590573023
C           -1.26729302710417        1.19931156178543       -1.71332322116032
C            0.01822492168407        1.16150959590445       -0.95944899339713
N            0.65536872335762       -0.04062270739682       -0.59616493244072
C            2.01918805233496       -0.01817442833984       -0.20028766568383
C            2.95867178046115       -0.54376348267385       -1.30597999247697
C            4.37908249858625       -0.43684794020389       -0.86645325632813
C            5.09443320455428        0.72993868606247       -1.06118120831081
C            6.40015968451315        0.84384685327331       -0.60872149854869
C            7.00796402413815       -0.20704588354041        0.05423940221976
O            8.28943076748608       -0.21027759043510        0.53244508772626
C            9.07625255274210        0.93334256630461        0.32836880544171
C            6.28092526339444       -1.39786236184099        0.27233026303931
O            6.96323197117737       -2.38295716098011        0.92868211831357
C            6.32177280659614       -3.61275560913605        1.14402942698082
C            4.98099981140995       -1.49304093217477       -0.18183362814027
C           -0.03754144240479       -1.29168604983882       -0.63601261566565
C           -3.89256435164300        3.18854499179094        0.56263663072773
C           -4.54330519559817        2.86910485918680        1.89472424973221
C           -3.38128175163171        4.63937747827559        0.56623781650401
H           -4.58775591966161        0.87068190331769       -1.32380520352517
H           -6.76568332805645        0.21864889520495       -1.84500535870655
H           -7.10526075053168       -1.23026841695271       -2.82650048150510
H           -5.57208052850352       -0.35026116469755       -3.04811058075867
H           -4.97226577147736       -3.74797727271336        2.44436016175015
H           -5.38763168324354       -5.00133181773093        1.24736776140537
H           -3.69771743449297       -4.46405917761254        1.41626307674016
H           -3.12089307465327       -2.27486068396887        2.15055887896167
H           -2.15850437956783       -0.05178100753236        2.05567566315874
H           -3.05697930511148        2.37592458738465       -1.81974327328574
H           -1.66365273443114        3.22069050287331       -1.13458784301660
H           -1.77520850743241        0.23537924577955       -1.68673774840277
H           -1.09021975910537        1.44982377686715       -2.77485006025862
H           -0.68956947981538        1.70173132823523        0.68561157923827
H            0.67718649903978        2.00818176635184       -1.07610403011706
H            2.14315222641637       -0.62499063284596        0.70490625802369
H            2.30360098117017        1.00950256989464        0.04303037136164
H            2.78644890813175        0.05283325470223       -2.20294022076950
H            2.69392760954916       -1.57969704314039       -1.52208347410138
H            4.63817134073200        1.56125634076522       -1.57773868939972
H            6.93777748694648        1.76138842476620       -0.79003047594317
H            8.65001290948008        1.81334750092994        0.82282306831449
H            9.21132762379992        1.14786957269540       -0.73760453859805
H           10.04208029412709        0.70176576797272        0.77472753937272
H            7.05709522302604       -4.23809070618452        1.64864172354681
H            5.43934955068830       -3.50523007768102        1.78449482444976
H            6.02845911525008       -4.08901143436465        0.20179742308097
H            4.41230396180485       -2.39661512643805       -0.02241789428065
H           -0.22375036874680       -1.62614803576861       -1.66535393542368
H           -0.99885310169880       -1.21551878767338       -0.11882025636481
H            0.57089503629618       -2.03876627164591       -0.13172379534597
H           -4.70794146630678        3.18083095905614       -0.18371368663507
H           -3.77320627576864        2.93091908231252        2.65341404009379
H           -4.94454400949749        1.86133845886969        1.84923244210215
H           -5.35984809166046        3.54300171114848        2.13849177506993
H           -2.57039232278701        4.74437413464584        1.27710369459579
H           -3.04291365553522        4.95247096795512       -0.41953924660274
H           -4.16632251451214        5.33967286939733        0.86380411543433
H           -0.60272232429361        2.58061903864164        2.81082597095724
72
 energy: 9.848477893506 xtb: 6.6.1 (8d0f1dd)
N           -1.54958317458193        2.53705598484317        2.44062391787320
C           -1.58562259122010        2.08068059214509        1.24587789445600
C           -2.79497519070988        2.05536313838609        0.31641822087699
C           -3.32179413211105        0.59502210468783        0.40651655529250
C           -4.24591751464546        0.14283963488795       -0.54216667000332
C           -4.80507371123951       -1.12071718940170       -0.50529968892681
O           -5.76470813398073       -1.58953008198165       -1.36982600555785
C           -6.27125228336387       -0.70833867057182       -2.33470777599814
C           -4.42560918162283       -2.03079865879331        0.49710239174645
O           -5.06992668072592       -3.24667272206859        0.46365221413090
C           -4.80527592104307       -4.17581008114795        1.47936195047725
C           -3.46911682769780       -1.63054656663375        1.40775463622523
C           -2.92000664212341       -0.34711851057119        1.35547756395896
C           -2.22413066383375        2.26466819487162       -1.11309553418164
C           -1.27338548317583        1.21335787408364       -1.73891327127113
C            0.02518310118997        1.19484352867592       -1.01141241464508
N            0.67259485036808       -0.04174609807446       -0.61858128046596
C            2.02795588535597       -0.00417952214898       -0.23187071222659
C            2.97708266346691       -0.54539666183589       -1.32635115470907
C            4.39188620692355       -0.43899105738004       -0.88504842364442
C            5.10846090441879        0.72877375845739       -1.07422178419981
C            6.41094790314104        0.84486094551303       -0.61355312421459
C            7.01402485621736       -0.20635961995389        0.05116296239786
O            8.30151879005624       -0.20936738120809        0.53651508268264
C            9.08067233269796        0.93631082277773        0.33534031843848
C            6.28889840246377       -1.39449798596025        0.26567916851123
O            6.97161273311461       -2.38397071803020        0.92773354431442
C            6.32597305567022       -3.61062149725810        1.13772717736378
C            4.99216182575816       -1.49269634345897       -0.19561468774097
C           -0.02883160328344       -1.28013405188295       -0.64947003646948
C           -3.90815293730502        3.26454816332236        0.55140122517743
C           -4.57824496424685        2.93361939622312        1.86488168442594
C           -3.36422718644358        4.71325085434190        0.57963342746111
H           -4.53892363062537        0.81797397611448       -1.32858115529217
H           -6.70353185125396        0.18881935359108       -1.87612565392149
H           -7.05398144383096       -1.26315534399234       -2.85128486972808
H           -5.50123640496556       -0.41065114447573       -3.05570497783053
H           -5.03853251846768       -3.77200014319935        2.47115414321440
H           -5.45852797830704       -5.02470335532840        1.27504815896899
H           -3.76229310628478       -4.51297893982423        1.46244806259082
H           -3.15605164282331       -2.31276805423313        2.18771919289838
H           -2.17174141994450       -0.10369149738496        2.09418763009874
H           -3.08168607492872        2.37380737497141       -1.77678119134316
H           -1.67508117250984        3.20612721010863       -1.08921026947392
H           -1.75450171856666        0.23440388023300       -1.72982986253976
H           -1.14906411034327        1.50258368278941       -2.80551181144207
H           -0.69532594489132        1.74558203917191        0.72335618684278
H            0.70523079610858        2.01525317644508       -1.17270383582290
H            2.16336831428973       -0.59394811989657        0.68761326564552
H            2.30636660425411        1.02972065164893       -0.00516846275430
H            2.80292108973028        0.04146214534900       -2.22936342560964
H            2.70354250098872       -1.58247023264385       -1.52973194802734
H            4.65077463849040        1.55945683921494       -1.59065200360519
H            6.94789788117993        1.76411324539298       -0.79018053754595
H            8.64952867843495        1.81586573172594        0.82758562161847
H            9.21967079761073        1.15322519781270       -0.73038397760234
H           10.04661235557731        0.70992877014633        0.78517344009668
H            7.05786990178900       -4.23881986959801        1.64473700886301
H            5.44031232022803       -3.50353665366601        1.77409473173621
H            6.03493177170714       -4.08603659550039        0.19384727581063
H            4.42005845620310       -2.39418559386753       -0.03576632438559
H           -0.22586151478866       -1.62924432956226       -1.67528697071655
H           -0.98717983132476       -1.19723682871173       -0.12702707812845
H            0.57814978972119       -2.02764670197969       -0.14058714718137
H           -4.73705676466126        3.32858172339037       -0.19105082342692
H           -3.79024619223146        2.94726375269157        2.60734102609536
H           -4.99946657730960        1.93623741601529        1.76214793016162
H           -5.38384927942058        3.60614900277613        2.14712713014093
H           -2.54208108196665        4.78606144678951        1.28022394182576
H           -3.04132149815340        5.04760435648281       -0.40611520517984
H           -4.12161236053781        5.43996643175070        0.90548648222221
H           -0.60932166878761        2.43447619647264        2.85751546363105
72
 energy: 25.516775675303 xtb: 6.6.1 (8d0f1dd)
N           -1.57771827068996        2.43558597494150        2.52021394635931
C           -1.59909322540567        2.04987783633228        1.28562017011333
C           -2.81251170597123        2.05261177281411        0.34405313618487
C           -3.32603822871782        0.57407329726855        0.43987487891154
C           -4.22336357373062        0.10137289753881       -0.52784750184794
C           -4.78672574638307       -1.16072870109556       -0.49396577178568
O           -5.74033453769700       -1.63085247090961       -1.37321932573695
C           -6.21731342550928       -0.75049944570719       -2.35240045467381
C           -4.43731720454132       -2.06567682203992        0.52078572281257
O           -5.10129036887252       -3.27858378890486        0.48693336599177
C           -4.86532695910151       -4.20614002929067        1.51000638132803
C           -3.48880504298158       -1.66442521781665        1.43888570968284
C           -2.93543421176017       -0.38038980111556        1.38948636340542
C           -2.23773140127164        2.25244874150125       -1.08547926075223
C           -1.28039700359029        1.22792617843554       -1.76314028783667
C            0.03091785329300        1.22505462271118       -1.06098731085614
N            0.68809755408119       -0.03974465350625       -0.64411852993915
C            2.03730652149481        0.01102373861939       -0.26359370833257
C            2.99397080175882       -0.54635032929373       -1.34674062065196
C            4.40425122207446       -0.44054527862582       -0.90262486616873
C            5.12183315886398        0.72811452550845       -1.08682801368246
C            6.42119136226145        0.84600095782086       -0.61855307892106
C            7.02040374006259       -0.20559340839307        0.04809871890940
O            8.31198327283925       -0.20831361863967        0.53990697871140
C            9.08519687605473        0.93937451967684        0.34224244628375
C            6.29637711276024       -1.39197615021310        0.25922441697266
O            6.97888770950487       -2.38465053897441        0.92587693753377
C            6.33001080005545       -3.60902309180325        1.13120173071623
C            5.00246795826671       -1.49240277349844       -0.20848723538221
C           -0.02060662320969       -1.26856542382214       -0.66281359006793
C           -3.92098658701665        3.33970505836508        0.54153144835101
C           -4.61197606177553        2.99626778714970        1.83574355622433
C           -3.34766505092503        4.78583460202599        0.59387779806254
H           -4.49138016085902        0.76569401262886       -1.33335203254380
H           -6.64140362783784        0.15871128116079       -1.90797751002754
H           -7.00194007411196       -1.29663020140380       -2.87615348587484
H           -5.43059096107679       -0.47113589137310       -3.06397750153431
H           -5.10527260374677       -3.79552729355891        2.49794808431139
H           -5.52982386396314       -5.04663396162598        1.30191003452806
H           -3.82740603762385       -4.56181383868720        1.50913718450679
H           -3.19070839363851       -2.34890541197611        2.22493960085435
H           -2.18641099018874       -0.15315725398084        2.13319998757897
H           -3.10413203365370        2.37102989871771       -1.73589723403394
H           -1.68703867434325        3.19233335967465       -1.04651244705651
H           -1.73724444707907        0.23599808820075       -1.77059408268873
H           -1.20136000451934        1.55195558317001       -2.83148962905983
H           -0.69599565362659        1.79446572887589        0.75246397384392
H            0.72856248607952        2.02238670238274       -1.26411320809049
H            2.18021202128252       -0.56165411473087        0.66898891025884
H            2.31032143897843        1.05075057017653       -0.05363032317068
H            2.82016027328198        0.03017135507567       -2.25647169111833
H            2.71288944622098       -1.58460622002099       -1.53687404702210
H            4.66352892204005        1.55821721972924       -1.60364605751088
H            6.95777746886082        1.76653453268406       -0.79115595778199
H            8.64924682974036        1.81818465811521        0.83257551688405
H            9.22826715979619        1.15844342743000       -0.72305812341712
H           10.05074528800365        0.71724795338944        0.79581532183957
H            7.05885551662782       -4.23945261966096        1.64056723432410
H            5.44135947571680       -3.50224210315229        1.76372568156922
H            6.04143755862590       -4.08359246121114        0.18576381171017
H            4.42777459932089       -2.39240867169115       -0.04899025600351
H           -0.22774328608874       -1.63047726109830       -1.68493284328337
H           -0.97586665622393       -1.17832356562584       -0.13497904502351
H            0.58584341662646       -2.01510888372511       -0.14986865769886
H           -4.76078935376370        3.46940457468209       -0.19665019179774
H           -3.81114129176377        2.96127004455376        2.56594138479244
H           -5.05504088639822        2.01156865188851        1.67880593867372
H           -5.40546240630138        3.66918462068750        2.15374090376989
H           -2.51369971401032        4.82815926597764        1.28307353913238
H           -3.03887783898815        5.13976003236793       -0.39131334904026
H           -4.07809489668077        5.53628387804002        0.94674643206261
H           -0.61991996206086        2.29239511893075        2.90601651567803
72
 energy: 43.833231703798 xtb: 6.6.1 (8d0f1dd)
N           -1.59853392409434        2.33742792852925        2.58668876838874
C           -1.61048293224814        2.01551317261336        1.32297418937715
C           -2.82605356702439        2.04662690997546        0.37062196426434
C           -3.32855844440125        0.55089569119915        0.47058641148267
C           -4.20050814955833        0.06035627264514       -0.51468729642659
C           -4.76926550440967       -1.19977732469854       -0.48308911709198
O           -5.71549079799535       -1.67037715324077       -1.37638971102373
C           -6.16415362065244       -0.79171158365095       -2.36998466345826
C           -4.44944573172656       -2.09981598656348        0.54432572564528
O           -5.13071573130095       -3.30879865990749        0.50946834914312
C           -4.92426686586461       -4.23527962022095        1.53993597513820
C           -3.50876923001439       -1.69759285644334        1.46979505426375
C           -2.95040337506422       -0.41351199430370        1.42274477916210
C           -2.24987317070864        2.24079868737573       -1.05893291556311
C           -1.28803138582729        1.24222270795819       -1.78458302263066
C            0.03483412326998        1.25305615010966       -1.10656674721960
N            0.70218377606620       -0.03537665455609       -0.67242051802028
C            2.04668868524758        0.02740174790331       -0.29484759679172
C            3.00915731708167       -0.54664866183585       -1.36653867316996
C            4.41573338310234       -0.44142959383790       -0.91856655192191