      -----------------------------------------------------------      
     |                   =====================                   |     
     |                           x T B                           |     
     |                   =====================                   |     
     |                         S. Grimme                         |     
     |          Mulliken Center for Theoretical Chemistry        |     
     |                    University of Bonn                     |     
      -----------------------------------------------------------      

   * xtb version 6.6.1 (8d0f1dd) compiled by 'conda@1efc2f54142f' on 2023-08-01

   xtb is free software: you can redistribute it and/or modify it under
   the terms of the GNU Lesser General Public License as published by
   the Free Software Foundation, either version 3 of the License, or
   (at your option) any later version.
   
   xtb is distributed in the hope that it will be useful,
   but WITHOUT ANY WARRANTY; without even the implied warranty of
   MERCHANTABILITY or FITNESS FOR A PARTICULAR PURPOSE.  See the
   GNU Lesser General Public License for more details.
   
   Cite this work as:
   * C. Bannwarth, E. Caldeweyher, S. Ehlert, A. Hansen, P. Pracht,
     J. Seibert, S. Spicher, S. Grimme, WIREs Comput. Mol. Sci., 2020, 11,
     e01493. DOI: 10.1002/wcms.1493
   
   for GFN2-xTB:
   * C. Bannwarth, S. Ehlert and S. Grimme., J. Chem. Theory Comput., 2019,
     15, 1652-1671. DOI: 10.1021/acs.jctc.8b01176
   for GFN1-xTB:
   * S. Grimme, C. Bannwarth, P. Shushkov, J. Chem. Theory Comput., 2017,
     13, 1989-2009. DOI: 10.1021/acs.jctc.7b00118
   for GFN0-xTB:
   * P. Pracht, E. Caldeweyher, S. Ehlert, S. Grimme, ChemRxiv, 2019, preprint.
     DOI: 10.26434/chemrxiv.8326202.v1
   for GFN-FF:
   * S. Spicher and S. Grimme, Angew. Chem. Int. Ed., 2020, 59, 15665-15673.
     DOI: 10.1002/anie.202004239
   
   for ALPB and GBSA implicit solvation:
   * S. Ehlert, M. Stahn, S. Spicher, S. Grimme, J. Chem. Theory Comput.,
     2021, 17, 4250-4261. DOI: 10.1021/acs.jctc.1c00471
   
   for DFT-D4:
   * E. Caldeweyher, C. Bannwarth and S. Grimme, J. Chem. Phys., 2017,
     147, 034112. DOI: 10.1063/1.4993215
   * E. Caldeweyher, S. Ehlert, A. Hansen, H. Neugebauer, S. Spicher,
     C. Bannwarth and S. Grimme, J. Chem. Phys., 2019, 150, 154122.
     DOI: 10.1063/1.5090222
   * E. Caldeweyher, J.-M. Mewes, S. Ehlert and S. Grimme, Phys. Chem. Chem. Phys.
     2020, 22, 8499-8512. DOI: 10.1039/D0CP00502A
   
   for sTDA-xTB:
   * S. Grimme and C. Bannwarth, J. Chem. Phys., 2016, 145, 054103.
     DOI: 10.1063/1.4959605
   
   in the mass-spec context:
   * V. Asgeirsson, C. Bauer and S. Grimme, Chem. Sci., 2017, 8, 4879.
     DOI: 10.1039/c7sc00601b
   * J. Koopman and S. Grimme, ACS Omega 2019, 4, 12, 15120-15133.
     DOI: 10.1021/acsomega.9b02011
   
   for metadynamics refer to:
   * S. Grimme, J. Chem. Theory Comput., 2019, 155, 2847-2862
     DOI: 10.1021/acs.jctc.9b00143
   
   for SPH calculations refer to:
   * S. Spicher and S. Grimme, J. Chem. Theory Comput., 2021, 17, 1701-1714
     DOI: 10.1021/acs.jctc.0c01306
   
   with help from (in alphabetical order)
   P. Atkinson, C. Bannwarth, F. Bohle, G. Brandenburg, E. Caldeweyher
   M. Checinski, S. Dohm, S. Ehlert, S. Ehrlich, I. Gerasimov, C. Hölzer
   A. Katbashev, J. Koopman, C. Lavigne, S. Lehtola, F. März, M. Müller,
   F. Musil, H. Neugebauer, J. Pisarek, C. Plett, P. Pracht, F. Pultar,
   J. Seibert, P. Shushkov, S. Spicher, M. Stahn, M. Steiner, T. Strunk,
   J. Stückrath, T. Rose, and J. Unsleber
   
 * started run on 2024/06/05 at 19:58:08.538     

           -------------------------------------------------
          |                Calculation Setup                |
           -------------------------------------------------

          program call               : xtb struc.xyz --opt loose --input .xc1 --gfn2
          hostname                   : n-62-21-71
          coordinate file            : struc.xyz
          omp threads                :                     1

   ID    Z sym.   atoms
    1    6 C      1, 3, 5-7, 10, 11, 14
    2    7 N      2, 4, 9, 13
    3    8 O      8, 12
    4    1 H      15-25
constraining bond 2 18 to    2.6866700 Å, actual value:    2.1303834 Å

           -------------------------------------------------
          |                 G F N 2 - x T B                 |
           -------------------------------------------------

        Reference                      10.1021/acs.jctc.8b01176
      * Hamiltonian:
        H0-scaling (s, p, d)           1.850000    2.230000    2.230000
        zeta-weighting                 0.500000
      * Dispersion:
        s8                             2.700000
        a1                             0.520000
        a2                             5.000000
        s9                             5.000000
      * Repulsion:
        kExp                           1.500000    1.000000
        rExp                           1.000000
      * Coulomb:
        alpha                          2.000000
        third order                    shell-resolved
        anisotropic                    true
        a3                             3.000000
        a5                             4.000000
        cn-shift                       1.200000
        cn-exp                         4.000000
        max-rad                        5.000000


          ...................................................
          :                      SETUP                      :
          :.................................................:
          :  # basis functions                  67          :
          :  # atomic orbitals                  67          :
          :  # shells                           39          :
          :  # electrons                        74          :
          :  max. iterations                   250          :
          :  Hamiltonian                  GFN2-xTB          :
          :  restarted?                      false          :
          :  GBSA solvation                  false          :
          :  PC potential                    false          :
          :  electronic temp.         2500.0000000     K    :
          :  accuracy                    1.0000000          :
          :  -> integral cutoff          0.2500000E+02      :
          :  -> integral neglect         0.1000000E-07      :
          :  -> SCF convergence          0.1000000E-05 Eh   :
          :  -> wf. convergence          0.1000000E-03 e    :
          :  Broyden damping             0.4000000          :
          ...................................................

 iter      E             dE          RMSdq      gap      omega  full diag
   1    -42.5894761 -0.425895E+02  0.446E+00    3.52       0.0  T
   2    -42.7660496 -0.176573E+00  0.253E+00    3.37       1.0  T
   3    -42.7736311 -0.758158E-02  0.147E+00    3.27       1.0  T
   4    -42.7712089  0.242228E-02  0.522E-01    3.20       1.0  T
   5    -42.7763755 -0.516665E-02  0.115E-01    3.24       1.0  T
   6    -42.7764786 -0.103096E-03  0.599E-02    3.22       1.0  T
   7    -42.7764977 -0.190557E-04  0.265E-02    3.24       1.0  T
   8    -42.7765022 -0.458752E-05  0.826E-03    3.24       2.4  T
   9    -42.7765028 -0.511866E-06  0.435E-03    3.24       4.6  T
  10    -42.7765028 -0.741126E-07  0.110E-03    3.24      18.2  T
  11    -42.7765028 -0.615289E-08  0.514E-04    3.24      38.9  T
  12    -42.7765028 -0.131732E-08  0.162E-04    3.24     123.6  T

   *** convergence criteria satisfied after 12 iterations ***

         #    Occupation            Energy/Eh            Energy/eV
      -------------------------------------------------------------
         1        2.0000           -0.9218663             -25.0853
       ...           ...                  ...                  ...
        31        2.0000           -0.6245728             -16.9955
        32        2.0000           -0.6188521             -16.8398
        33        2.0000           -0.5946289             -16.1807
        34        1.9999           -0.5766508             -15.6915
        35        1.9996           -0.5616187             -15.2824
        36        1.9994           -0.5584494             -15.1962
        37        1.9993           -0.5575820             -15.1726 (HOMO)
        38        0.0017           -0.4385664             -11.9340 (LUMO)
        39        0.0000           -0.4059970             -11.0477
        40        0.0000           -0.3720875             -10.1250
        41                         -0.2883077              -7.8453
        42                         -0.2064013              -5.6165
       ...                                ...                  ...
        67                          0.5638960              15.3444
      -------------------------------------------------------------
                  HL-Gap            0.1190156 Eh            3.2386 eV
             Fermi-level           -0.4943591 Eh          -13.4522 eV

 SCC (total)                   0 d,  0 h,  0 min,  0.041 sec
 SCC setup                      ...        0 min,  0.000 sec (  0.565%)
 Dispersion                     ...        0 min,  0.001 sec (  1.309%)
 classical contributions        ...        0 min,  0.000 sec (  0.185%)
 integral evaluation            ...        0 min,  0.010 sec ( 23.705%)
 iterations                     ...        0 min,  0.017 sec ( 42.095%)
 molecular gradient             ...        0 min,  0.013 sec ( 31.701%)
 printout                       ...        0 min,  0.000 sec (  0.407%)

         :::::::::::::::::::::::::::::::::::::::::::::::::::::
         ::                     SUMMARY                     ::
         :::::::::::::::::::::::::::::::::::::::::::::::::::::
         :: total energy             -42.797824758311 Eh    ::
         :: gradient norm              1.486599590786 Eh/a0 ::
         :: HOMO-LUMO gap              3.238579380711 eV    ::
         ::.................................................::
         :: SCC energy               -42.776502838750 Eh    ::
         :: -> isotropic ES            0.143394945287 Eh    ::
         :: -> anisotropic ES         -0.005231236584 Eh    ::
         :: -> anisotropic XC          0.012162721064 Eh    ::
         :: -> dispersion             -0.022660936007 Eh    ::
         :: repulsion energy           0.531105277918 Eh    ::
         :: add. restraining          -0.552541356488 Eh    ::
         :: total charge               1.000000000000 e     ::
         :::::::::::::::::::::::::::::::::::::::::::::::::::::

      ----------------------------------------------------------- 
     |                   =====================                   |
     |                        A N C O P T                        |
     |                   =====================                   |
     |               Approximate Normal Coordinate               |
     |                Rational Function Optimizer                |
      ----------------------------------------------------------- 

          ...................................................
          :                      SETUP                      :
          :.................................................:
          :   optimization level             loose          :
          :   max. optcycles                   200          :
          :   ANC micro-cycles                  20          :
          :   degrees of freedom                69          :
          :.................................................:
          :   RF solver                   davidson          :
          :   write xtbopt.log                true          :
          :   linear?                        false          :
          :   energy convergence         0.5000000E-04 Eh   :
          :   grad. convergence          0.4000000E-02 Eh/α :
          :   maxmium RF displ.          1.0000000          :
          :   Hlow (freq-cutoff)         0.1000000E-01      :
          :   Hmax (freq-cutoff)         5.0000000          :
          :   S6 in model hess.         20.0000000          :
          ...................................................

generating ANC from model Hessian ...
Using Lindh-Hessian (1995)
 Shifting diagonal of input Hessian by    1.3465141828623171     
 Lowest  eigenvalues of input Hessian
    0.010000    0.000000    0.000000    0.000000    0.000000    0.000000
    0.000000    1.349868    1.352088    1.352444    1.355698    1.356711
    1.358395    1.358575    1.360642    1.367627    1.369933    1.380553
 Highest eigenvalues
    3.398997    3.533243    3.604769    3.629751    3.759323    3.889745


........................................................................
.............................. CYCLE    1 ..............................
........................................................................

 iter      E             dE          RMSdq      gap      omega  full diag
   1    -42.7765028 -0.427765E+02  0.540E-05    3.24       0.0  T
   2    -42.7765028 -0.643041E-11  0.289E-05    3.24     692.1  T
   3    -42.7765028  0.881073E-12  0.138E-05    3.24    1448.6  T
     SCC iter.                  ...        0 min,  0.005 sec
     gradient                   ...        0 min,  0.026 sec
 * total energy  :   -42.7978248 Eh     change       -0.6633627E-10 Eh
   gradient norm :     1.4865991 Eh/α   predicted     0.0000000E+00 (-100.00%)
   displ. norm   :     0.9904904 α      lambda       -0.1456758E+01
   maximum displ.:     0.9868187 α      in ANC's #1, #64, #50, ...

........................................................................
.............................. CYCLE    2 ..............................
........................................................................

 iter      E             dE          RMSdq      gap      omega  full diag
   1    -42.7368659 -0.427369E+02  0.123E+00    3.87       0.0  T
   2    -42.7435515 -0.668555E-02  0.796E-01    3.99       1.0  T
   3    -42.7458014 -0.224996E-02  0.461E-01    3.94       1.0  T
   4    -42.7470552 -0.125378E-02  0.115E-01    3.93       1.0  T
   5    -42.7472761 -0.220842E-03  0.400E-02    3.95       1.0  T
   6    -42.7472827 -0.658560E-05  0.171E-02    3.94       1.2  T
   7    -42.7472836 -0.940234E-06  0.287E-03    3.94       7.0  T
   8    -42.7472836 -0.559079E-07  0.127E-03    3.94      15.7  T
   9    -42.7472837 -0.693986E-08  0.363E-04    3.94      55.1  T
  10    -42.7472837 -0.520743E-09  0.130E-04    3.94     153.7  T
     SCC iter.                  ...        0 min,  0.014 sec
     gradient                   ...        0 min,  0.013 sec
 * total energy  :   -44.8960920 Eh     change       -0.2098267E+01 Eh
   gradient norm :     2.7352171 Eh/α   predicted    -0.1442971E+01 ( -31.23%)
   displ. norm   :     0.9886597 α      lambda       -0.2678392E+01
   maximum displ.:     0.9789270 α      in ANC's #1, #67, #46, ...

........................................................................
.............................. CYCLE    3 ..............................
........................................................................

 iter      E             dE          RMSdq      gap      omega  full diag
   1    -42.3805859 -0.423806E+02  0.212E+00    3.39       0.0  T
   2    -42.3401419  0.404440E-01  0.256E+00    2.59       1.0  T
   3    -42.4927977 -0.152656E+00  0.780E-01    2.70       1.0  T
   4    -42.4900175  0.278017E-02  0.515E-01    2.57       1.0  T
   5    -42.4934570 -0.343945E-02  0.136E-01    2.56       1.0  T
   6    -42.4938017 -0.344752E-03  0.368E-02    2.59       1.0  T
   7    -42.4938030 -0.126974E-05  0.119E-02    2.58       1.7  T
   8    -42.4938042 -0.121749E-05  0.418E-03    2.59       4.8  T
   9    -42.4938043 -0.118212E-06  0.175E-03    2.59      11.4  T
  10    -42.4938044 -0.844707E-08  0.510E-04    2.59      39.2  T
  11    -42.4938044 -0.128605E-08  0.209E-04    2.59      95.9  T
     SCC iter.                  ...        0 min,  0.015 sec
     gradient                   ...        0 min,  0.013 sec
 * total energy  :   -48.1889923 Eh     change       -0.3292900E+01 Eh
   gradient norm :     4.0852289 Eh/α   predicted    -0.2648191E+01 ( -19.58%)
   displ. norm   :     0.9279180 α      lambda       -0.3643345E+01
   maximum displ.:     0.8319466 α      in ANC's #1, #67, #66, ...

........................................................................
.............................. CYCLE    4 ..............................
........................................................................

 iter      E             dE          RMSdq      gap      omega  full diag
   1    -42.3053404 -0.423053E+02  0.299E+00    1.07       0.0  T
   2    -42.2694385  0.359019E-01  0.300E+00    2.27       1.0  T
   3    -42.4880588 -0.218620E+00  0.120E+00    1.64       1.0  T
   4    -42.5188902 -0.308314E-01  0.623E-01    1.40       1.0  T
   5    -42.5256138 -0.672364E-02  0.240E-01    1.42       1.0  T
   6    -42.5262202 -0.606424E-03  0.725E-02    1.45       1.0  T
   7    -42.5262886 -0.683809E-04  0.216E-02    1.43       1.0  T
   8    -42.5262902 -0.163742E-05  0.121E-02    1.43       1.7  T
   9    -42.5262923 -0.207924E-05  0.403E-03    1.43       5.0  T
  10    -42.5262926 -0.265807E-06  0.833E-04    1.43      24.0  T
  11    -42.5262926 -0.553038E-08  0.341E-04    1.43      58.6  T
     SCC iter.                  ...        0 min,  0.015 sec
     gradient                   ...        0 min,  0.013 sec
 * total energy  :   -26.1854090 Eh     change        0.2200358E+02 Eh
   gradient norm :   256.9435266 Eh/α   predicted    -0.3390206E+01 (-115.41%)
   displ. norm   :     0.5459268 α      lambda       -0.1402115E+03
   maximum displ.:     0.5292346 α      in ANC's #1, #64, #50, ...

........................................................................
.............................. CYCLE    5 ..............................
........................................................................

 iter      E             dE          RMSdq      gap      omega  full diag
   1    -42.4515328 -0.424515E+02  0.166E+00    2.49       0.0  T
   2    -42.3551166  0.964161E-01  0.213E+00    2.03       1.0  T
   3    -42.4918682 -0.136752E+00  0.764E-01    2.20       1.0  T
   4    -42.5008015 -0.893327E-02  0.238E-01    2.11       1.0  T
   5    -42.5011203 -0.318808E-03  0.517E-02    2.08       1.0  T
   6    -42.5011550 -0.346993E-04  0.259E-02    2.08       1.0  T
   7    -42.5011612 -0.627951E-05  0.113E-02    2.09       1.8  T
   8    -42.5011628 -0.154329E-05  0.227E-03    2.08       8.8  T
   9    -42.5011628 -0.296932E-07  0.976E-04    2.08      20.5  T
  10    -42.5011628 -0.916522E-09  0.316E-04    2.08      63.2  T
     SCC iter.                  ...        0 min,  0.014 sec
     gradient                   ...        0 min,  0.013 sec
 * total energy  :   -49.3449264 Eh     change       -0.2315952E+02 Eh
   gradient norm :     0.5628282 Eh/α   predicted    -0.9100702E+02 ( 292.96%)
   displ. norm   :     0.8038473 α      lambda       -0.2592830E+00
   maximum displ.:     0.3638903 α      in ANC's #67, #66, #50, ...

........................................................................
.............................. CYCLE    6 ..............................
........................................................................

 iter      E             dE          RMSdq      gap      omega  full diag
   1    -42.3417159 -0.423417E+02  0.276E+00    1.35       0.0  T
   2    -42.2308929  0.110823E+00  0.303E+00    0.47       1.0  T
   3    -42.4423100 -0.211417E+00  0.135E+00    1.76       1.0  T
   4    -42.4702040 -0.278940E-01  0.666E-01    1.14       1.0  T
   5    -42.4749006 -0.469656E-02  0.379E-01    1.10       1.0  T
   6    -42.4785996 -0.369899E-02  0.924E-02    1.20       1.0  T
   7    -42.4786978 -0.982680E-04  0.311E-02    1.22       1.0  T
   8    -42.4787100 -0.121168E-04  0.157E-02    1.21       1.3  T
   9    -42.4787115 -0.152241E-05  0.286E-03    1.21       7.0  T
  10    -42.4787115 -0.411376E-07  0.157E-03    1.21      12.7  T
  11    -42.4787115 -0.557249E-08  0.578E-04    1.21      34.6  T
  12    -42.4787115 -0.566681E-08  0.212E-04    1.21      94.4  T
     SCC iter.                  ...        0 min,  0.018 sec
     gradient                   ...        0 min,  0.019 sec
 * total energy  :   -49.2985081 Eh     change        0.4641831E-01 Eh
   gradient norm :     1.0501952 Eh/α   predicted    -0.2134166E+00 (-559.77%)
   displ. norm   :     0.5756138 α      lambda       -0.4706263E+00
   maximum displ.:     0.2892897 α      in ANC's #62, #41, #67, ...

........................................................................
.............................. CYCLE    7 ..............................
........................................................................

 iter      E             dE          RMSdq      gap      omega  full diag
   1    -42.3773854 -0.423774E+02  0.161E+00    1.50       0.0  T
   2    -42.3768509  0.534578E-03  0.171E+00    1.24       1.0  T
   3    -42.4340553 -0.572044E-01  0.502E-01    1.53       1.0  T
   4    -42.4303950  0.366029E-02  0.553E-01    1.44       1.0  T
   5    -42.4340098 -0.361484E-02  0.244E-01    1.55       1.0  T
   6    -42.4348738 -0.863964E-03  0.951E-02    1.47       1.0  T
   7    -42.4350607 -0.186907E-03  0.554E-02    1.51       1.0  T
   8    -42.4350749 -0.142218E-04  0.275E-02    1.50       1.0  T
   9    -42.4350868 -0.118915E-04  0.668E-03    1.50       3.0  T
  10    -42.4350868 -0.282282E-08  0.487E-03    1.50       4.1  T
  11    -42.4350872 -0.367632E-06  0.998E-04    1.50      20.0  T
  12    -42.4350872 -0.126403E-07  0.506E-04    1.50      39.5  T
     SCC iter.                  ...        0 min,  0.016 sec
     gradient                   ...        0 min,  0.013 sec
 * total energy  :   -49.4299971 Eh     change       -0.1314890E+00 Eh
   gradient norm :     0.4822382 Eh/α   predicted    -0.3132798E+00 ( 138.26%)
   displ. norm   :     0.2707084 α      lambda       -0.4349937E-01
   maximum displ.:     0.1127312 α      in ANC's #66, #50, #67, ...

........................................................................
.............................. CYCLE    8 ..............................
........................................................................

 iter      E             dE          RMSdq      gap      omega  full diag
   1    -42.4591140 -0.424591E+02  0.745E-01    1.90       0.0  T
   2    -42.4592593 -0.145264E-03  0.508E-01    1.72       1.0  T
   3    -42.4636746 -0.441530E-02  0.320E-01    1.79       1.0  T
   4    -42.4639743 -0.299748E-03  0.112E-01    1.79       1.0  T
   5    -42.4642639 -0.289579E-03  0.620E-02    1.80       1.0  T
   6    -42.4643314 -0.674729E-04  0.325E-02    1.77       1.0  T
   7    -42.4643412 -0.988378E-05  0.762E-03    1.78       2.6  T
   8    -42.4643420 -0.803105E-06  0.230E-03    1.78       8.7  T
   9    -42.4643421 -0.385993E-07  0.128E-03    1.78      15.7  T
  10    -42.4643421 -0.117671E-07  0.308E-04    1.78      64.9  T
  11    -42.4643421 -0.577749E-09  0.150E-04    1.78     133.6  T
     SCC iter.                  ...        0 min,  0.015 sec
     gradient                   ...        0 min,  0.013 sec
 * total energy  :   -49.4668143 Eh     change       -0.3681716E-01 Eh
   gradient norm :     0.5607541 Eh/α   predicted    -0.2335442E-01 ( -36.57%)
   displ. norm   :     0.4766996 α      lambda       -0.5336302E-01
   maximum displ.:     0.1943413 α      in ANC's #66, #50, #46, ...

........................................................................
.............................. CYCLE    9 ..............................
........................................................................

 iter      E             dE          RMSdq      gap      omega  full diag
   1    -42.4734106 -0.424734E+02  0.148E+00    2.48       0.0  T
   2    -42.4765723 -0.316176E-02  0.111E+00    2.45       1.0  T
   3    -42.4987285 -0.221562E-01  0.577E-01    2.25       1.0  T
   4    -42.5033794 -0.465086E-02  0.364E-01    2.46       1.0  T
   5    -42.5053261 -0.194671E-02  0.566E-02    2.39       1.0  T
   6    -42.5053395 -0.134394E-04  0.302E-02    2.38       1.0  T
   7    -42.5053434 -0.390322E-05  0.910E-03    2.38       2.2  T
   8    -42.5053443 -0.900360E-06  0.247E-03    2.38       8.1  T
   9    -42.5053444 -0.720509E-07  0.115E-03    2.38      17.4  T
  10    -42.5053444 -0.759360E-08  0.504E-04    2.38      39.7  T
  11    -42.5053444 -0.145323E-08  0.107E-04    2.38     186.7  T
     SCC iter.                  ...        0 min,  0.015 sec
     gradient                   ...        0 min,  0.013 sec
 * total energy  :   -49.4801647 Eh     change       -0.1335042E-01 Eh
   gradient norm :     0.6388470 Eh/α   predicted    -0.3274499E-01 ( 145.27%)
   displ. norm   :     0.2182482 α      lambda       -0.3194848E-01
   maximum displ.:     0.0952237 α      in ANC's #66, #67, #50, ...

........................................................................
.............................. CYCLE   10 ..............................
........................................................................

 iter      E             dE          RMSdq      gap      omega  full diag
   1    -42.4792175 -0.424792E+02  0.826E-01    2.02       0.0  T
   2    -42.4794347 -0.217285E-03  0.672E-01    2.05       1.0  T
   3    -42.4894628 -0.100281E-01  0.280E-01    2.22       1.0  T
   4    -42.4906394 -0.117656E-02  0.175E-01    2.12       1.0  T
   5    -42.4910209 -0.381529E-03  0.311E-02    2.16       1.0  T
   6    -42.4910385 -0.176226E-04  0.171E-02    2.16       1.2  T
   7    -42.4910396 -0.106907E-05  0.729E-03    2.16       2.7  T
   8    -42.4910401 -0.492042E-06  0.302E-03    2.16       6.6  T
   9    -42.4910402 -0.103372E-06  0.922E-04    2.16      21.7  T
  10    -42.4910402 -0.751093E-08  0.392E-04    2.16      51.1  T
     SCC iter.                  ...        0 min,  0.014 sec
     gradient                   ...        0 min,  0.013 sec
 * total energy  :   -49.4921806 Eh     change       -0.1201591E-01 Eh
   gradient norm :     0.4767644 Eh/α   predicted    -0.1673524E-01 (  39.28%)
   displ. norm   :     0.0626955 α      lambda       -0.5494544E-02
   maximum displ.:     0.0250904 α      in ANC's #46, #50, #16, ...

........................................................................
.............................. CYCLE   11 ..............................
........................................................................

 iter      E             dE          RMSdq      gap      omega  full diag
   1    -42.4956982 -0.424957E+02  0.870E-02    2.31       0.0  T
   2    -42.4957148 -0.166064E-04  0.639E-02    2.28       1.0  T
   3    -42.4957510 -0.361895E-04  0.380E-02    2.27       1.0  T
   4    -42.4957646 -0.136348E-04  0.207E-02    2.29       1.0  T
   5    -42.4957745 -0.992217E-05  0.366E-03    2.28       5.5  T
   6    -42.4957747 -0.132963E-06  0.181E-03    2.28      11.1  T
   7    -42.4957747 -0.231837E-08  0.588E-04    2.28      34.0  T
   8    -42.4957747 -0.462890E-08  0.218E-04    2.28      91.8  T
     SCC iter.                  ...        0 min,  0.011 sec
     gradient                   ...        0 min,  0.013 sec
 * total energy  :   -49.4973924 Eh     change       -0.5211800E-02 Eh
   gradient norm :     0.4579119 Eh/α   predicted    -0.2758647E-02 ( -47.07%)
   displ. norm   :     0.5316703 α      lambda       -0.4443184E-01
   maximum displ.:     0.1977541 α      in ANC's #46, #16, #39, ...

........................................................................
.............................. CYCLE   12 ..............................
........................................................................

 iter      E             dE          RMSdq      gap      omega  full diag
   1    -42.5150962 -0.425151E+02  0.645E-01    3.18       0.0  T
   2    -42.5160573 -0.961110E-03  0.372E-01    3.06       1.0  T
   3    -42.5159314  0.125951E-03  0.168E-01    3.06       1.0  T
   4    -42.5163335 -0.402134E-03  0.315E-02    3.05       1.0  T
   5    -42.5163423 -0.881248E-05  0.192E-02    3.05       1.0  T
   6    -42.5163490 -0.662167E-05  0.719E-03    3.05       2.8  T
   7    -42.5163492 -0.215029E-06  0.229E-03    3.05       8.8  T
   8    -42.5163492 -0.447587E-07  0.624E-04    3.05      32.1  T
   9    -42.5163492 -0.221865E-08  0.341E-04    3.05      58.7  T
     SCC iter.                  ...        0 min,  0.012 sec
     gradient                   ...        0 min,  0.013 sec
 * total energy  :   -49.5287014 Eh     change       -0.3130900E-01 Eh
   gradient norm :     0.3671026 Eh/α   predicted    -0.2849613E-01 (  -8.98%)
   displ. norm   :     0.3869959 α      lambda       -0.2105118E-01
   maximum displ.:     0.1319222 α      in ANC's #46, #16, #39, ...

........................................................................
.............................. CYCLE   13 ..............................
........................................................................

 iter      E             dE          RMSdq      gap      omega  full diag
   1    -42.5146045 -0.425146E+02  0.494E-01    3.03       0.0  T
   2    -42.5147861 -0.181631E-03  0.285E-01    2.99       1.0  T
   3    -42.5144147  0.371414E-03  0.170E-01    3.00       1.0  T
   4    -42.5149618 -0.547070E-03  0.356E-02    3.00       1.0  T
   5    -42.5149793 -0.175496E-04  0.143E-02    2.99       1.4  T
   6    -42.5149797 -0.325727E-06  0.623E-03    2.99       3.2  T
   7    -42.5149799 -0.288662E-06  0.144E-03    2.99      13.9  T
   8    -42.5149800 -0.561739E-08  0.757E-04    2.99      26.4  T
   9    -42.5149800 -0.258373E-08  0.194E-04    2.99     103.2  T
     SCC iter.                  ...        0 min,  0.012 sec
     gradient                   ...        0 min,  0.013 sec
 * total energy  :   -49.5438312 Eh     change       -0.1512980E-01 Eh
   gradient norm :     0.2994209 Eh/α   predicted    -0.1210224E-01 ( -20.01%)
   displ. norm   :     0.2748970 α      lambda       -0.1727301E-01
   maximum displ.:     0.1007744 α      in ANC's #64, #46, #16, ...

........................................................................
.............................. CYCLE   14 ..............................
........................................................................

 iter      E             dE          RMSdq      gap      omega  full diag
   1    -42.5106368 -0.425106E+02  0.379E-01    2.86       0.0  T
   2    -42.5107993 -0.162518E-03  0.229E-01    2.82       1.0  T
   3    -42.5106424  0.156925E-03  0.134E-01    2.85       1.0  T
   4    -42.5109198 -0.277402E-03  0.350E-02    2.85       1.0  T
   5    -42.5109314 -0.116117E-04  0.162E-02    2.84       1.2  T
   6    -42.5109308  0.674006E-06  0.950E-03    2.84       2.1  T
   7    -42.5109320 -0.124675E-05  0.165E-03    2.84      12.1  T
   8    -42.5109320 -0.891963E-08  0.846E-04    2.84      23.6  T
   9    -42.5109320 -0.326512E-08  0.260E-04    2.84      77.0  T
     SCC iter.                  ...        0 min,  0.012 sec
     gradient                   ...        0 min,  0.013 sec
 * total energy  :   -49.5564491 Eh     change       -0.1261790E-01 Eh
   gradient norm :     0.1708048 Eh/α   predicted    -0.9289129E-02 ( -26.38%)
   displ. norm   :     0.1836574 α      lambda       -0.1736773E-01
   maximum displ.:     0.0887971 α      in ANC's #64, #62, #63, ...

........................................................................
.............................. CYCLE   15 ..............................
........................................................................

 iter      E             dE          RMSdq      gap      omega  full diag
   1    -42.5166336 -0.425166E+02  0.307E-01    2.60       0.0  T
   2    -42.5168756 -0.242012E-03  0.185E-01    2.58       1.0  T
   3    -42.5168607  0.148632E-04  0.111E-01    2.62       1.0  T
   4    -42.5169572 -0.964628E-04  0.322E-02    2.60       1.0  T
   5    -42.5169683 -0.110781E-04  0.154E-02    2.60       1.3  T
   6    -42.5169666  0.162353E-05  0.115E-02    2.61       1.7  T
   7    -42.5169689 -0.230055E-05  0.225E-03    2.60       8.9  T
   8    -42.5169690 -0.621274E-07  0.951E-04    2.60      21.0  T
   9    -42.5169690 -0.167326E-08  0.520E-04    2.60      38.5  T
     SCC iter.                  ...        0 min,  0.012 sec
     gradient                   ...        0 min,  0.013 sec
 * total energy  :   -49.5688155 Eh     change       -0.1236638E-01 Eh
   gradient norm :     0.0857352 Eh/α   predicted    -0.8977006E-02 ( -27.41%)
   displ. norm   :     0.1552486 α      lambda       -0.1142302E-01
   maximum displ.:     0.0694301 α      in ANC's #50, #64, #24, ...

........................................................................
.............................. CYCLE   16 ..............................
........................................................................

 iter      E             dE          RMSdq      gap      omega  full diag
   1    -42.5322506 -0.425323E+02  0.258E-01    2.38       0.0  T
   2    -42.5323742 -0.123542E-03  0.150E-01    2.39       1.0  T
   3    -42.5322679  0.106302E-03  0.955E-02    2.37       1.0  T
   4    -42.5323660 -0.981029E-04  0.552E-02    2.40       1.0  T
   5    -42.5324269 -0.609447E-04  0.142E-02    2.38       1.4  T
   6    -42.5324270 -0.673366E-07  0.112E-02    2.39       1.8  T
   7    -42.5324283 -0.134609E-05  0.158E-03    2.38      12.7  T
   8    -42.5324284 -0.212653E-07  0.778E-04    2.38      25.7  T
   9    -42.5324284 -0.212901E-08  0.285E-04    2.38      70.1  T
     SCC iter.                  ...        0 min,  0.012 sec
     gradient                   ...        0 min,  0.013 sec
 * total energy  :   -49.5762453 Eh     change       -0.7429825E-02 Eh
   gradient norm :     0.0920235 Eh/α   predicted    -0.5849195E-02 ( -21.27%)
   displ. norm   :     0.1027622 α      lambda       -0.5139127E-02
   maximum displ.:     0.0369939 α      in ANC's #16, #24, #50, ...

........................................................................
.............................. CYCLE   17 ..............................
........................................................................

 iter      E             dE          RMSdq      gap      omega  full diag
   1    -42.5452856 -0.425453E+02  0.170E-01    2.35       0.0  T
   2    -42.5452876 -0.201072E-05  0.107E-01    2.36       1.0  T
   3    -42.5452911 -0.348330E-05  0.903E-02    2.32       1.0  T
   4    -42.5454131 -0.122053E-03  0.261E-02    2.35       1.0  T
   5    -42.5454259 -0.127947E-04  0.574E-03    2.34       3.5  T
   6    -42.5454262 -0.284936E-06  0.372E-03    2.34       5.4  T
   7    -42.5454263 -0.111060E-06  0.124E-03    2.34      16.2  T
   8    -42.5454263 -0.972177E-08  0.367E-04    2.34      54.4  T
   9    -42.5454263 -0.850399E-09  0.167E-04    2.34     119.9  T
     SCC iter.                  ...        0 min,  0.013 sec
     gradient                   ...        0 min,  0.013 sec
 * total energy  :   -49.5802766 Eh     change       -0.4031262E-02 Eh
   gradient norm :     0.0884222 Eh/α   predicted    -0.2596886E-02 ( -35.58%)
   displ. norm   :     0.1735588 α      lambda       -0.8220523E-02
   maximum displ.:     0.0805439 α      in ANC's #16, #24, #39, ...

........................................................................
.............................. CYCLE   18 ..............................
........................................................................

 iter      E             dE          RMSdq      gap      omega  full diag
   1    -42.5665842 -0.425666E+02  0.273E-01    2.42       0.0  T
   2    -42.5668171 -0.232912E-03  0.153E-01    2.42       1.0  T
   3    -42.5667990  0.180826E-04  0.137E-01    2.36       1.0  T
   4    -42.5670534 -0.254368E-03  0.439E-02    2.40       1.0  T
   5    -42.5670823 -0.288825E-04  0.649E-03    2.39       3.1  T
   6    -42.5670825 -0.209841E-06  0.379E-03    2.39       5.3  T
   7    -42.5670826 -0.106101E-06  0.179E-03    2.39      11.1  T
   8    -42.5670826 -0.246243E-07  0.498E-04    2.39      40.1  T
   9    -42.5670826 -0.190701E-08  0.221E-04    2.39      90.5  T
     SCC iter.                  ...        0 min,  0.012 sec
     gradient                   ...        0 min,  0.013 sec
 * total energy  :   -49.5855859 Eh     change       -0.5309385E-02 Eh
   gradient norm :     0.0559858 Eh/α   predicted    -0.4234273E-02 ( -20.25%)
   displ. norm   :     0.0817794 α      lambda       -0.2677918E-02
   maximum displ.:     0.0431756 α      in ANC's #16, #24, #17, ...

........................................................................
.............................. CYCLE   19 ..............................
........................................................................

 iter      E             dE          RMSdq      gap      omega  full diag
   1    -42.5750034 -0.425750E+02  0.117E-01    2.47       0.0  T
   2    -42.5751034 -0.999454E-04  0.595E-02    2.46       1.0  T
   3    -42.5751080 -0.468316E-05  0.312E-02    2.46       1.0  T
   4    -42.5751083 -0.272666E-06  0.100E-02    2.46       2.0  T
   5    -42.5751095 -0.115562E-05  0.338E-03    2.46       5.9  T
   6    -42.5751095 -0.243632E-07  0.268E-03    2.46       7.5  T
   7    -42.5751096 -0.595034E-07  0.107E-03    2.46      18.8  T
   8    -42.5751096 -0.229259E-07  0.488E-04    2.46      41.0  T
   9    -42.5751096 -0.268212E-08  0.170E-04    2.46     117.6  T
     SCC iter.                  ...        0 min,  0.012 sec
     gradient                   ...        0 min,  0.013 sec
 * total energy  :   -49.5874442 Eh     change       -0.1858217E-02 Eh
   gradient norm :     0.0499588 Eh/α   predicted    -0.1348088E-02 ( -27.45%)
   displ. norm   :     0.0733670 α      lambda       -0.2042712E-02
   maximum displ.:     0.0381462 α      in ANC's #16, #24, #19, ...

........................................................................
.............................. CYCLE   20 ..............................
........................................................................

 iter      E             dE          RMSdq      gap      omega  full diag
   1    -42.5796599 -0.425797E+02  0.956E-02    2.50       0.0  T
   2    -42.5797021 -0.422272E-04  0.527E-02    2.48       1.0  T
   3    -42.5797071 -0.503058E-05  0.394E-02    2.50       1.0  T
   4    -42.5797234 -0.162587E-04  0.171E-02    2.49       1.2  T
   5    -42.5797286 -0.518872E-05  0.352E-03    2.49       5.7  T
   6    -42.5797287 -0.167176E-06  0.131E-03    2.49      15.2  T
   7    -42.5797288 -0.407777E-08  0.656E-04    2.49      30.5  T
   8    -42.5797288 -0.536015E-08  0.187E-04    2.49     106.9  T
     SCC iter.                  ...        0 min,  0.011 sec
     gradient                   ...        0 min,  0.013 sec
 * total energy  :   -49.5890293 Eh     change       -0.1585176E-02 Eh
   gradient norm :     0.0561183 Eh/α   predicted    -0.1026828E-02 ( -35.22%)
   displ. norm   :     0.1311153 α      lambda       -0.3119628E-02
   maximum displ.:     0.0680824 α      in ANC's #16, #19, #24, ...
 * RMSD in coord.:     0.6286668 α      energy gain  -0.6791205E+01 Eh

generating ANC from model Hessian ...
Using Lindh-Hessian (1995)
 Shifting diagonal of input Hessian by    7.5817457217841871E-003
 Lowest  eigenvalues of input Hessian
    0.000000    0.000000    0.000000    0.000000    0.000000    0.000000
    0.010000    0.012597    0.013165    0.018400    0.018526    0.020847
    0.021012    0.022714    0.023948    0.032128    0.038921    0.048469
 Highest eigenvalues
    2.177789    2.333541    2.394498    2.575140    9.387854   14.230423


........................................................................
.............................. CYCLE   21 ..............................
........................................................................

 iter      E             dE          RMSdq      gap      omega  full diag
   1    -42.5843182 -0.425843E+02  0.163E-01    2.49       0.0  T
   2    -42.5843832 -0.649949E-04  0.984E-02    2.46       1.0  T
   3    -42.5844515 -0.683385E-04  0.780E-02    2.50       1.0  T
   4    -42.5845160 -0.644963E-04  0.245E-02    2.48       1.0  T
   5    -42.5845276 -0.115753E-04  0.611E-03    2.48       3.3  T
   6    -42.5845279 -0.320122E-06  0.328E-03    2.48       6.1  T
   7    -42.5845280 -0.511190E-07  0.136E-03    2.48      14.8  T
   8    -42.5845280 -0.177942E-07  0.464E-04    2.48      43.1  T
   9    -42.5845280 -0.724320E-09  0.200E-04    2.48     100.2  T
     SCC iter.                  ...        0 min,  0.013 sec
     gradient                   ...        0 min,  0.013 sec
 * total energy  :   -49.5912139 Eh     change       -0.2184577E-02 Eh
   gradient norm :     0.0493136 Eh/α   predicted     0.0000000E+00 (-100.00%)
   displ. norm   :     0.2921338 α      lambda       -0.5909060E-02
   maximum displ.:     0.1552323 α      in ANC's #15, #5, #7, ...

........................................................................
.............................. CYCLE   22 ..............................
........................................................................

 iter      E             dE          RMSdq      gap      omega  full diag
   1    -42.5840409 -0.425840E+02  0.229E-01    2.40       0.0  T
   2    -42.5840833 -0.424020E-04  0.133E-01    2.41       1.0  T
   3    -42.5839628  0.120457E-03  0.780E-02    2.44       1.0  T
   4    -42.5840840 -0.121183E-03  0.240E-02    2.41       1.0  T
   5    -42.5841008 -0.168201E-04  0.588E-03    2.41       3.4  T
   6    -42.5841010 -0.239749E-06  0.347E-03    2.42       5.8  T
   7    -42.5841011 -0.914550E-07  0.909E-04    2.41      22.0  T
   8    -42.5841011 -0.450408E-08  0.411E-04    2.41      48.7  T
     SCC iter.                  ...        0 min,  0.011 sec
     gradient                   ...        0 min,  0.013 sec
 * total energy  :   -49.5905545 Eh     change        0.6594575E-03 Eh
   gradient norm :     0.5468243 Eh/α   predicted    -0.3209783E-02 (-586.73%)
   displ. norm   :     0.5304500 α      lambda       -0.2159020E-01
   maximum displ.:     0.3124083 α      in ANC's #15, #5, #12, ...

........................................................................
.............................. CYCLE   23 ..............................
........................................................................

 iter      E             dE          RMSdq      gap      omega  full diag
   1    -42.5671993 -0.425672E+02  0.495E-01    2.15       0.0  T
   2    -42.5675329 -0.333596E-03  0.291E-01    2.20       1.0  T
   3    -42.5673102  0.222665E-03  0.116E-01    2.19       1.0  T
   4    -42.5673707 -0.605008E-04  0.903E-02    2.22       1.0  T
   5    -42.5675833 -0.212632E-03  0.144E-02    2.20       1.4  T
   6    -42.5675849 -0.158562E-05  0.109E-02    2.20       1.8  T
   7    -42.5675862 -0.123573E-05  0.289E-03    2.20       6.9  T
   8    -42.5675862 -0.391097E-07  0.117E-03    2.20      17.0  T
   9    -42.5675862 -0.620337E-08  0.432E-04    2.20      46.3  T
  10    -42.5675862 -0.135883E-08  0.121E-04    2.20     165.1  T
     SCC iter.                  ...        0 min,  0.014 sec
     gradient                   ...        0 min,  0.013 sec
 * total energy  :   -49.5906059 Eh     change       -0.5144231E-04 Eh
   gradient norm :     0.3647388 Eh/α   predicted    -0.1383262E-01 (*******%)
   displ. norm   :     0.2702746 α      lambda       -0.1146747E-01
   maximum displ.:     0.1631168 α      in ANC's #15, #12, #16, ...

........................................................................
.............................. CYCLE   24 ..............................
........................................................................

 iter      E             dE          RMSdq      gap      omega  full diag
   1    -42.5842620 -0.425843E+02  0.305E-01    2.34       0.0  T
   2    -42.5843980 -0.135955E-03  0.177E-01    2.31       1.0  T
   3    -42.5843797  0.182733E-04  0.561E-02    2.30       1.0  T
   4    -42.5843854 -0.568200E-05  0.290E-02    2.32       1.0  T
   5    -42.5844097 -0.242777E-04  0.113E-02    2.31       1.8  T
   6    -42.5844115 -0.181799E-05  0.543E-03    2.31       3.7  T
   7    -42.5844117 -0.159130E-06  0.166E-03    2.31      12.0  T
   8    -42.5844117 -0.210217E-07  0.556E-04    2.31      35.9  T
   9    -42.5844117 -0.713534E-09  0.160E-04    2.31     124.8  T
     SCC iter.                  ...        0 min,  0.012 sec
     gradient                   ...        0 min,  0.013 sec
 * total energy  :   -49.5972071 Eh     change       -0.6601155E-02 Eh
   gradient norm :     0.0538388 Eh/α   predicted    -0.6152588E-02 (  -6.80%)
   displ. norm   :     0.2365440 α      lambda       -0.1524175E-02
   maximum displ.:     0.1317160 α      in ANC's #2, #7, #1, ...

........................................................................
.............................. CYCLE   25 ..............................
........................................................................

 iter      E             dE          RMSdq      gap      omega  full diag
   1    -42.5865726 -0.425866E+02  0.128E-01    2.30       0.0  T
   2    -42.5865823 -0.971854E-05  0.742E-02    2.29       1.0  T
   3    -42.5865389  0.433853E-04  0.461E-02    2.30       1.0  T
   4    -42.5865840 -0.451379E-04  0.124E-02    2.29       1.6  T
   5    -42.5865881 -0.410630E-05  0.347E-03    2.29       5.8  T
   6    -42.5865884 -0.231197E-06  0.154E-03    2.29      13.0  T
   7    -42.5865884 -0.114005E-07  0.389E-04    2.29      51.4  T
   8    -42.5865884 -0.153745E-08  0.145E-04    2.29     137.6  T
     SCC iter.                  ...        0 min,  0.011 sec
     gradient                   ...        0 min,  0.013 sec
 * total energy  :   -49.5985461 Eh     change       -0.1339062E-02 Eh
   gradient norm :     0.0720077 Eh/α   predicted    -0.8047496E-03 ( -39.90%)
   displ. norm   :     0.7463396 α      lambda       -0.4992271E-02
   maximum displ.:     0.4215966 α      in ANC's #2, #8, #1, ...

........................................................................
.............................. CYCLE   26 ..............................
........................................................................

 iter      E             dE          RMSdq      gap      omega  full diag
   1    -42.5896947 -0.425897E+02  0.458E-01    2.21       0.0  T
   2    -42.5897774 -0.827562E-04  0.275E-01    2.18       1.0  T
   3    -42.5887928  0.984632E-03  0.245E-01    2.24       1.0  T
   4    -42.5900085 -0.121574E-02  0.435E-02    2.18       1.0  T
   5    -42.5900587 -0.501756E-04  0.165E-02    2.20       1.2  T
   6    -42.5900642 -0.553153E-05  0.609E-03    2.19       3.3  T
   7    -42.5900643 -0.745388E-07  0.172E-03    2.19      11.6  T
   8    -42.5900643 -0.176155E-07  0.901E-04    2.19      22.2  T
   9    -42.5900643 -0.270825E-08  0.267E-04    2.19      74.9  T
     SCC iter.                  ...        0 min,  0.012 sec
     gradient                   ...        0 min,  0.013 sec
 * total energy  :   -49.6028914 Eh     change       -0.4345329E-02 Eh
   gradient norm :     0.2191451 Eh/α   predicted    -0.3886622E-02 ( -10.56%)
   displ. norm   :     0.6724300 α      lambda       -0.5392190E-02
   maximum displ.:     0.3877789 α      in ANC's #2, #8, #7, ...

........................................................................
.............................. CYCLE   27 ..............................
........................................................................

 iter      E             dE          RMSdq      gap      omega  full diag
   1    -42.5886108 -0.425886E+02  0.421E-01    2.12       0.0  T
   2    -42.5883658  0.245023E-03  0.284E-01    2.06       1.0  T
   3    -42.5882515  0.114279E-03  0.251E-01    2.15       1.0  T
   4    -42.5892234 -0.971862E-03  0.494E-02    2.08       1.0  T
   5    -42.5892909 -0.674681E-04  0.189E-02    2.10       1.1  T
   6    -42.5892969 -0.601685E-05  0.742E-03    2.10       2.7  T
   7    -42.5892970 -0.787444E-07  0.242E-03    2.10       8.3  T
   8    -42.5892970 -0.244722E-07  0.129E-03    2.10      15.5  T
   9    -42.5892970 -0.114804E-07  0.278E-04    2.10      71.9  T
  10    -42.5892970 -0.368225E-09  0.971E-05    2.10     206.1  T
     SCC iter.                  ...        0 min,  0.014 sec
     gradient                   ...        0 min,  0.013 sec
 * total energy  :   -49.6067011 Eh     change       -0.3809631E-02 Eh
   gradient norm :     0.2294085 Eh/α   predicted    -0.3915188E-02 (   2.77%)
   displ. norm   :     0.3512007 α      lambda       -0.8767987E-02
   maximum displ.:     0.1618906 α      in ANC's #2, #21, #15, ...

........................................................................
.............................. CYCLE   28 ..............................
........................................................................

 iter      E             dE          RMSdq      gap      omega  full diag
   1    -42.6012762 -0.426013E+02  0.266E-01    2.12       0.0  T
   2    -42.6012233  0.528542E-04  0.167E-01    2.08       1.0  T
   3    -42.6010797  0.143680E-03  0.156E-01    2.14       1.0  T
   4    -42.6014989 -0.419221E-03  0.353E-02    2.09       1.0  T
   5    -42.6015286 -0.296995E-04  0.117E-02    2.10       1.7  T
   6    -42.6015310 -0.238357E-05  0.430E-03    2.10       4.6  T
   7    -42.6015310 -0.149498E-07  0.109E-03    2.10      18.3  T
   8    -42.6015310 -0.523381E-08  0.599E-04    2.10      33.4  T
   9    -42.6015310 -0.264468E-08  0.147E-04    2.10     135.8  T
     SCC iter.                  ...        0 min,  0.012 sec
     gradient                   ...        0 min,  0.013 sec
 * total energy  :   -49.6123327 Eh     change       -0.5631619E-02 Eh
   gradient norm :     0.1875570 Eh/α   predicted    -0.4924795E-02 ( -12.55%)
   displ. norm   :     0.3119510 α      lambda       -0.8877906E-02
   maximum displ.:     0.1399601 α      in ANC's #2, #15, #1, ...

........................................................................
.............................. CYCLE   29 ..............................
........................................................................

 iter      E             dE          RMSdq      gap      omega  full diag
   1    -42.6060187 -0.426060E+02  0.287E-01    2.10       0.0  T
   2    -42.6061657 -0.146965E-03  0.153E-01    2.13       1.0  T
   3    -42.6060397  0.125946E-03  0.956E-02    2.08       1.0  T
   4    -42.6061294 -0.897097E-04  0.530E-02    2.13       1.0  T
   5    -42.6062069 -0.775130E-04  0.808E-03    2.11       2.5  T
   6    -42.6062080 -0.109168E-05  0.340E-03    2.11       5.9  T
   7    -42.6062081 -0.266224E-07  0.140E-03    2.11      14.3  T
   8    -42.6062081 -0.274734E-07  0.449E-04    2.11      44.6  T
   9    -42.6062081 -0.137396E-08  0.179E-04    2.11     111.7  T
     SCC iter.                  ...        0 min,  0.012 sec
     gradient                   ...        0 min,  0.013 sec
 * total energy  :   -49.6180756 Eh     change       -0.5742934E-02 Eh
   gradient norm :     0.3571733 Eh/α   predicted    -0.4870926E-02 ( -15.18%)
   displ. norm   :     0.3379781 α      lambda       -0.6767208E-02
   maximum displ.:     0.2082959 α      in ANC's #2, #1, #16, ...

........................................................................
.............................. CYCLE   30 ..............................
........................................................................

 iter      E             dE          RMSdq      gap      omega  full diag
   1    -42.6076261 -0.426076E+02  0.262E-01    2.14       0.0  T
   2    -42.6077453 -0.119192E-03  0.150E-01    2.21       1.0  T
   3    -42.6076760  0.693429E-04  0.130E-01    2.13       1.0  T
   4    -42.6079571 -0.281088E-03  0.368E-02    2.18       1.0  T
   5    -42.6079723 -0.152565E-04  0.988E-03    2.17       2.0  T
   6    -42.6079730 -0.685109E-06  0.595E-03    2.17       3.4  T
   7    -42.6079731 -0.132186E-06  0.210E-03    2.17       9.5  T
   8    -42.6079732 -0.736850E-07  0.797E-04    2.17      25.1  T
   9    -42.6079732 -0.410347E-08  0.249E-04    2.17      80.5  T
     SCC iter.                  ...        0 min,  0.012 sec
     gradient                   ...        0 min,  0.013 sec
 * total energy  :   -49.6232043 Eh     change       -0.5128673E-02 Eh
   gradient norm :     0.2584325 Eh/α   predicted    -0.3770130E-02 ( -26.49%)
   displ. norm   :     0.5801172 α      lambda       -0.9000484E-02
   maximum displ.:     0.3880473 α      in ANC's #2, #1, #6, ...

........................................................................
.............................. CYCLE   31 ..............................
........................................................................

 iter      E             dE          RMSdq      gap      omega  full diag
   1    -42.6117186 -0.426117E+02  0.367E-01    2.19       0.0  T
   2    -42.6121119 -0.393353E-03  0.185E-01    2.26       1.0  T
   3    -42.6120170  0.949879E-04  0.126E-01    2.19       1.0  T
   4    -42.6121756 -0.158681E-03  0.531E-02    2.24       1.0  T
   5    -42.6122269 -0.512786E-04  0.160E-02    2.22       1.3  T
   6    -42.6122310 -0.407901E-05  0.737E-03    2.22       2.7  T
   7    -42.6122312 -0.248199E-06  0.293E-03    2.22       6.8  T
   8    -42.6122313 -0.807678E-07  0.903E-04    2.22      22.1  T
   9    -42.6122313 -0.480271E-08  0.317E-04    2.22      63.0  T
     SCC iter.                  ...        0 min,  0.012 sec
     gradient                   ...        0 min,  0.013 sec
 * total energy  :   -49.6303640 Eh     change       -0.7159680E-02 Eh
   gradient norm :     0.3110519 Eh/α   predicted    -0.6014715E-02 ( -15.99%)
   displ. norm   :     0.4578243 α      lambda       -0.1375355E-01
   maximum displ.:     0.1923904 α      in ANC's #2, #1, #35, ...

........................................................................
.............................. CYCLE   32 ..............................
........................................................................

 iter      E             dE          RMSdq      gap      omega  full diag
   1    -42.6343728 -0.426344E+02  0.511E-01    2.25       0.0  T
   2    -42.6358134 -0.144056E-02  0.262E-01    2.38       1.0  T
   3    -42.6358105  0.290111E-05  0.183E-01    2.27       1.0  T
   4    -42.6360801 -0.269633E-03  0.816E-02    2.34       1.0  T
   5    -42.6361504 -0.702792E-04  0.240E-02    2.31       1.0  T
   6    -42.6361553 -0.495781E-05  0.139E-02    2.31       1.4  T
   7    -42.6361565 -0.114673E-05  0.380E-03    2.31       5.3  T
   8    -42.6361567 -0.189201E-06  0.138E-03    2.31      14.5  T
   9    -42.6361567 -0.763379E-08  0.442E-04    2.31      45.2  T
  10    -42.6361567 -0.112806E-08  0.903E-05    2.31     221.6  T
     SCC iter.                  ...        0 min,  0.014 sec
     gradient                   ...        0 min,  0.013 sec
 * total energy  :   -49.6377958 Eh     change       -0.7431769E-02 Eh
   gradient norm :     0.1151385 Eh/α   predicted    -0.8318193E-02 (  11.93%)
   displ. norm   :     0.5685183 α      lambda       -0.1039973E-01
   maximum displ.:     0.3866040 α      in ANC's #2, #8, #1, ...

........................................................................
.............................. CYCLE   33 ..............................
........................................................................

 iter      E             dE          RMSdq      gap      omega  full diag
   1    -42.6244996 -0.426245E+02  0.387E-01    2.29       0.0  T
   2    -42.6246286 -0.128970E-03  0.222E-01    2.25       1.0  T
   3    -42.6243788  0.249838E-03  0.131E-01    2.31       1.0  T
   4    -42.6246933 -0.314507E-03  0.245E-02    2.26       1.0  T
   5    -42.6247058 -0.125784E-04  0.723E-03    2.27       2.8  T
   6    -42.6247062 -0.333441E-06  0.418E-03    2.27       4.8  T
   7    -42.6247063 -0.110379E-06  0.115E-03    2.27      17.4  T
   8    -42.6247063 -0.189154E-07  0.320E-04    2.27      62.6  T
   9    -42.6247063 -0.147743E-09  0.148E-04    2.27     135.3  T
     SCC iter.                  ...        0 min,  0.012 sec
     gradient                   ...        0 min,  0.013 sec
 * total energy  :   -49.6436308 Eh     change       -0.5835086E-02 Eh
   gradient norm :     0.2247855 Eh/α   predicted    -0.6880560E-02 (  17.92%)
   displ. norm   :     0.1822908 α      lambda       -0.5539640E-02
   maximum displ.:     0.0934392 α      in ANC's #1, #12, #18, ...

........................................................................
.............................. CYCLE   34 ..............................
........................................................................

 iter      E             dE          RMSdq      gap      omega  full diag
   1    -42.6255008 -0.426255E+02  0.163E-01    2.31       0.0  T
   2    -42.6255540 -0.531714E-04  0.906E-02    2.30       1.0  T
   3    -42.6255490  0.501518E-05  0.345E-02    2.29       1.0  T
   4    -42.6255543 -0.528701E-05  0.139E-02    2.30       1.4  T
   5    -42.6255586 -0.430757E-05  0.334E-03    2.30       6.0  T
   6    -42.6255586 -0.574268E-08  0.188E-03    2.30      10.6  T
   7    -42.6255586 -0.456044E-07  0.690E-04    2.30      29.0  T
   8    -42.6255586 -0.650316E-08  0.172E-04    2.30     116.1  T
     SCC iter.                  ...        0 min,  0.011 sec
     gradient                   ...        0 min,  0.013 sec
 * total energy  :   -49.6461359 Eh     change       -0.2505015E-02 Eh
   gradient norm :     0.1202660 Eh/α   predicted    -0.2861878E-02 (  14.25%)
   displ. norm   :     0.2607079 α      lambda       -0.7832583E-02
   maximum displ.:     0.0942048 α      in ANC's #19, #2, #25, ...

........................................................................
.............................. CYCLE   35 ..............................
........................................................................

 iter      E             dE          RMSdq      gap      omega  full diag
   1    -42.6463756 -0.426464E+02  0.303E-01    2.43       0.0  T
   2    -42.6467386 -0.362983E-03  0.162E-01    2.48       1.0  T
   3    -42.6467523 -0.137166E-04  0.108E-01    2.42       1.0  T
   4    -42.6468172 -0.649208E-04  0.265E-02    2.45       1.0  T
   5    -42.6468260 -0.879836E-05  0.142E-02    2.44       1.4  T
   6    -42.6468281 -0.206293E-05  0.773E-03    2.44       2.6  T
   7    -42.6468284 -0.349634E-06  0.208E-03    2.44       9.6  T
   8    -42.6468285 -0.459268E-07  0.667E-04    2.44      30.0  T
   9    -42.6468285 -0.213191E-08  0.225E-04    2.44      89.0  T
     SCC iter.                  ...        0 min,  0.012 sec
     gradient                   ...        0 min,  0.013 sec
 * total energy  :   -49.6469506 Eh     change       -0.8147052E-03 Eh
   gradient norm :     0.3355780 Eh/α   predicted    -0.4182483E-02 ( 413.37%)
   displ. norm   :     0.1935804 α      lambda       -0.6396220E-02
   maximum displ.:     0.0844043 α      in ANC's #7, #18, #17, ...

........................................................................
.............................. CYCLE   36 ..............................
........................................................................

 iter      E             dE          RMSdq      gap      omega  full diag
   1    -42.6408654 -0.426409E+02  0.173E-01    2.37       0.0  T
   2    -42.6409548 -0.894955E-04  0.941E-02    2.36       1.0  T
   3    -42.6409464  0.844086E-05  0.554E-02    2.39       1.0  T
   4    -42.6409653 -0.188547E-04  0.167E-02    2.37       1.2  T
   5    -42.6409711 -0.587251E-05  0.692E-03    2.37       2.9  T
   6    -42.6409716 -0.429388E-06  0.372E-03    2.37       5.4  T
   7    -42.6409716 -0.476726E-07  0.109E-03    2.37      18.3  T
   8    -42.6409716 -0.194283E-07  0.385E-04    2.37      52.0  T
   9    -42.6409716 -0.815383E-09  0.142E-04    2.37     141.0  T
     SCC iter.                  ...        0 min,  0.012 sec
     gradient                   ...        0 min,  0.013 sec
 * total energy  :   -49.6505018 Eh     change       -0.3551277E-02 Eh
   gradient norm :     0.1051012 Eh/α   predicted    -0.3317978E-02 (  -6.57%)
   displ. norm   :     0.2006234 α      lambda       -0.2298687E-02
   maximum displ.:     0.0905246 α      in ANC's #2, #5, #7, ...

........................................................................
.............................. CYCLE   37 ..............................
........................................................................

 iter      E             dE          RMSdq      gap      omega  full diag
   1    -42.6391670 -0.426392E+02  0.103E-01    2.34       0.0  T
   2    -42.6391792 -0.121669E-04  0.566E-02    2.32       1.0  T
   3    -42.6391682  0.109840E-04  0.410E-02    2.35       1.0  T
   4    -42.6391897 -0.214733E-04  0.639E-03    2.33       3.1  T
   5    -42.6391902 -0.511956E-06  0.394E-03    2.33       5.1  T
   6    -42.6391903 -0.957272E-07  0.200E-03    2.33      10.0  T
   7    -42.6391903 -0.337690E-07  0.434E-04    2.33      46.0  T
   8    -42.6391903 -0.136379E-08  0.197E-04    2.33     101.7  T
     SCC iter.                  ...        0 min,  0.011 sec
     gradient                   ...        0 min,  0.013 sec
 * total energy  :   -49.6523033 Eh     change       -0.1801448E-02 Eh
   gradient norm :     0.0924105 Eh/α   predicted    -0.1195616E-02 ( -33.63%)
   displ. norm   :     0.3754243 α      lambda       -0.5187091E-02
   maximum displ.:     0.1716841 α      in ANC's #9, #7, #2, ...

........................................................................
.............................. CYCLE   38 ..............................
........................................................................

 iter      E             dE          RMSdq      gap      omega  full diag
   1    -42.6414458 -0.426414E+02  0.182E-01    2.34       0.0  T
   2    -42.6414757 -0.299303E-04  0.106E-01    2.34       1.0  T
   3    -42.6414547  0.209785E-04  0.330E-02    2.32       1.0  T
   4    -42.6414780 -0.232871E-04  0.140E-02    2.34       1.4  T
   5    -42.6414819 -0.390404E-05  0.319E-03    2.33       6.3  T
   6    -42.6414819 -0.193328E-07  0.150E-03    2.33      13.3  T
   7    -42.6414820 -0.934052E-08  0.483E-04    2.33      41.4  T
   8    -42.6414820 -0.416556E-08  0.151E-04    2.33     132.2  T
     SCC iter.                  ...        0 min,  0.011 sec
     gradient                   ...        0 min,  0.013 sec
 * total energy  :   -49.6554813 Eh     change       -0.3178013E-02 Eh
   gradient norm :     0.1572818 Eh/α   predicted    -0.2959113E-02 (  -6.89%)
   displ. norm   :     0.2200383 α      lambda       -0.3322779E-02
   maximum displ.:     0.0913632 α      in ANC's #9, #8, #11, ...

........................................................................
.............................. CYCLE   39 ..............................
........................................................................

 iter      E             dE          RMSdq      gap      omega  full diag
   1    -42.6477745 -0.426478E+02  0.144E-01    2.33       0.0  T
   2    -42.6477995 -0.249241E-04  0.819E-02    2.32       1.0  T
   3    -42.6477754  0.240168E-04  0.420E-02    2.33       1.0  T
   4    -42.6478047 -0.292555E-04  0.924E-03    2.32       2.2  T
   5    -42.6478062 -0.154578E-05  0.389E-03    2.32       5.1  T
   6    -42.6478063 -0.404389E-07  0.234E-03    2.32       8.5  T
   7    -42.6478063 -0.454753E-07  0.445E-04    2.32      45.0  T
   8    -42.6478063 -0.209426E-08  0.196E-04    2.32     102.2  T
     SCC iter.                  ...        0 min,  0.011 sec
     gradient                   ...        0 min,  0.013 sec
 * total energy  :   -49.6575038 Eh     change       -0.2022505E-02 Eh
   gradient norm :     0.1594446 Eh/α   predicted    -0.1741836E-02 ( -13.88%)
   displ. norm   :     0.2493432 α      lambda       -0.3095199E-02
   maximum displ.:     0.1430061 α      in ANC's #9, #1, #16, ...

........................................................................
.............................. CYCLE   40 ..............................
........................................................................

 iter      E             dE          RMSdq      gap      omega  full diag
   1    -42.6470148 -0.426470E+02  0.135E-01    2.34       0.0  T
   2    -42.6470305 -0.156452E-04  0.775E-02    2.35       1.0  T
   3    -42.6470288  0.164433E-05  0.172E-02    2.34       1.2  T
   4    -42.6470325 -0.364947E-05  0.357E-03    2.35       5.6  T
   5    -42.6470326 -0.100050E-06  0.206E-03    2.35       9.7  T
   6    -42.6470326 -0.135531E-07  0.114E-03    2.35      17.5  T
   7    -42.6470326 -0.149556E-07  0.224E-04    2.35      89.1  T
   8    -42.6470326 -0.636362E-09  0.143E-04    2.35     139.9  T
     SCC iter.                  ...        0 min,  0.011 sec
     gradient                   ...        0 min,  0.013 sec
 * total energy  :   -49.6598901 Eh     change       -0.2386274E-02 Eh
   gradient norm :     0.0789167 Eh/α   predicted    -0.1643829E-02 ( -31.11%)
   displ. norm   :     0.3992637 α      lambda       -0.5146514E-02
   maximum displ.:     0.2243208 α      in ANC's #9, #16, #6, ...

........................................................................
.............................. CYCLE   41 ..............................
........................................................................

 iter      E             dE          RMSdq      gap      omega  full diag
   1    -42.6557492 -0.426557E+02  0.190E-01    2.37       0.0  T
   2    -42.6557782 -0.289443E-04  0.112E-01    2.37       1.0  T
   3    -42.6557143  0.638612E-04  0.669E-02    2.39       1.0  T
   4    -42.6557971 -0.828035E-04  0.104E-02    2.38       1.9  T
   5    -42.6557987 -0.157840E-05  0.443E-03    2.38       4.5  T
   6    -42.6557988 -0.694988E-07  0.225E-03    2.38       8.9  T
   7    -42.6557988 -0.241649E-07  0.603E-04    2.38      33.2  T
   8    -42.6557988 -0.623987E-08  0.231E-04    2.38      86.5  T
     SCC iter.                  ...        0 min,  0.011 sec
     gradient                   ...        0 min,  0.013 sec
 * total energy  :   -49.6616077 Eh     change       -0.1717626E-02 Eh
   gradient norm :     0.3165098 Eh/α   predicted    -0.2983493E-02 (  73.70%)
   displ. norm   :     0.3247633 α      lambda       -0.7965149E-02
   maximum displ.:     0.1659746 α      in ANC's #2, #7, #25, ...

........................................................................
.............................. CYCLE   42 ..............................
........................................................................

 iter      E             dE          RMSdq      gap      omega  full diag
   1    -42.6651415 -0.426651E+02  0.174E-01    2.42       0.0  T
   2    -42.6651830 -0.414722E-04  0.993E-02    2.40       1.0  T
   3    -42.6651768  0.620348E-05  0.304E-02    2.42       1.0  T
   4    -42.6651832 -0.643356E-05  0.127E-02    2.40       1.6  T
   5    -42.6651868 -0.353105E-05  0.386E-03    2.41       5.2  T
   6    -42.6651868 -0.442932E-07  0.162E-03    2.41      12.4  T
   7    -42.6651868 -0.177150E-07  0.411E-04    2.41      48.6  T
   8    -42.6651868 -0.223842E-08  0.192E-04    2.41     104.0  T
     SCC iter.                  ...        0 min,  0.011 sec
     gradient                   ...        0 min,  0.013 sec
 * total energy  :   -49.6625680 Eh     change       -0.9602523E-03 Eh
   gradient norm :     0.2669631 Eh/α   predicted    -0.4402620E-02 ( 358.49%)
   displ. norm   :     0.3423077 α      lambda       -0.7103403E-02
   maximum displ.:     0.2341211 α      in ANC's #1, #9, #11, ...
 * RMSD in coord.:     0.9009968 α      energy gain  -0.7353861E-01 Eh

generating ANC from model Hessian ...
Using Lindh-Hessian (1995)
 Shifting diagonal of input Hessian by    5.5027740925682085E-003
 Lowest  eigenvalues of input Hessian
    0.000000    0.000000    0.000000    0.000000    0.000000    0.000000
    0.010000    0.011113    0.013309    0.013844    0.016833    0.017091
    0.020113    0.021023    0.024150    0.027919    0.038097    0.047163
 Highest eigenvalues
    2.116119    2.280265    2.389380    2.555986   12.066723   12.237625


........................................................................
.............................. CYCLE   43 ..............................
........................................................................

 iter      E             dE          RMSdq      gap      omega  full diag
   1    -42.6532025 -0.426532E+02  0.240E-01    2.39       0.0  T
   2    -42.6533067 -0.104239E-03  0.136E-01    2.38       1.0  T
   3    -42.6532887  0.180361E-04  0.513E-02    2.36       1.0  T
   4    -42.6533101 -0.214344E-04  0.190E-02    2.38       1.1  T
   5    -42.6533175 -0.733109E-05  0.601E-03    2.37       3.3  T
   6    -42.6533178 -0.282221E-06  0.310E-03    2.37       6.5  T
   7    -42.6533178 -0.235431E-07  0.812E-04    2.37      24.6  T
   8    -42.6533178 -0.844988E-08  0.328E-04    2.37      61.0  T
     SCC iter.                  ...        0 min,  0.011 sec
     gradient                   ...        0 min,  0.013 sec
 * total energy  :   -49.6659599 Eh     change       -0.3391923E-02 Eh
   gradient norm :     0.0440470 Eh/α   predicted     0.0000000E+00 (-100.00%)
   displ. norm   :     0.2816689 α      lambda       -0.3491595E-02
   maximum displ.:     0.2034567 α      in ANC's #1, #4, #5, ...

........................................................................
.............................. CYCLE   44 ..............................
........................................................................

 iter      E             dE          RMSdq      gap      omega  full diag
   1    -42.6583468 -0.426583E+02  0.150E-01    2.38       0.0  T
   2    -42.6583574 -0.105719E-04  0.863E-02    2.37       1.0  T
   3    -42.6583556  0.174267E-05  0.150E-02    2.37       1.3  T
   4    -42.6583581 -0.244060E-05  0.618E-03    2.37       3.2  T
   5    -42.6583588 -0.729570E-06  0.251E-03    2.37       8.0  T
   6    -42.6583588 -0.254571E-07  0.712E-04    2.37      28.1  T
   7    -42.6583588 -0.360742E-08  0.186E-04    2.37     107.3  T
     SCC iter.                  ...        0 min,  0.010 sec
     gradient                   ...        0 min,  0.013 sec
 * total energy  :   -49.6620051 Eh     change        0.3954787E-02 Eh
   gradient norm :     0.5744745 Eh/α   predicted    -0.1889098E-02 (-147.77%)
   displ. norm   :     0.2941509 α      lambda       -0.1590851E-01
   maximum displ.:     0.1706128 α      in ANC's #1, #4, #5, ...

........................................................................
.............................. CYCLE   45 ..............................
........................................................................

 iter      E             dE          RMSdq      gap      omega  full diag
   1    -42.6617207 -0.426617E+02  0.204E-01    2.37       0.0  T
   2    -42.6617515 -0.308343E-04  0.117E-01    2.35       1.0  T
   3    -42.6617220  0.294649E-04  0.445E-02    2.37       1.0  T
   4    -42.6617573 -0.352526E-04  0.104E-02    2.35       1.9  T
   5    -42.6617591 -0.186900E-05  0.416E-03    2.35       4.8  T
   6    -42.6617592 -0.249927E-07  0.187E-03    2.35      10.7  T
   7    -42.6617592 -0.470634E-07  0.426E-04    2.35      46.9  T
   8    -42.6617592 -0.177551E-08  0.179E-04    2.35     111.8  T
     SCC iter.                  ...        0 min,  0.011 sec
     gradient                   ...        0 min,  0.013 sec
 * total energy  :   -49.6674111 Eh     change       -0.5406045E-02 Eh
   gradient norm :     0.1241760 Eh/α   predicted    -0.8642524E-02 (  59.87%)
   displ. norm   :     0.1473139 α      lambda       -0.3662191E-02
   maximum displ.:     0.0525249 α      in ANC's #41, #16, #1, ...

........................................................................
.............................. CYCLE   46 ..............................
........................................................................

 iter      E             dE          RMSdq      gap      omega  full diag
   1    -42.6584350 -0.426584E+02  0.139E-01    2.36       0.0  T
   2    -42.6584589 -0.238902E-04  0.790E-02    2.37       1.0  T
   3    -42.6584534  0.548155E-05  0.260E-02    2.36       1.0  T
   4    -42.6584603 -0.687979E-05  0.989E-03    2.38       2.0  T
   5    -42.6584622 -0.188427E-05  0.354E-03    2.37       5.6  T
   6    -42.6584622 -0.987704E-08  0.137E-03    2.37      14.7  T
   7    -42.6584622 -0.300307E-07  0.338E-04    2.37      59.2  T
   8    -42.6584622 -0.863523E-09  0.153E-04    2.37     130.4  T
     SCC iter.                  ...        0 min,  0.011 sec
     gradient                   ...        0 min,  0.013 sec
 * total energy  :   -49.6692426 Eh     change       -0.1831505E-02 Eh
   gradient norm :     0.0466003 Eh/α   predicted    -0.1870852E-02 (   2.15%)
   displ. norm   :     0.3371125 α      lambda       -0.1321797E-02
   maximum displ.:     0.2538644 α      in ANC's #1, #4, #5, ...

........................................................................
.............................. CYCLE   47 ..............................
........................................................................

 iter      E             dE          RMSdq      gap      omega  full diag
   1    -42.6583849 -0.426584E+02  0.118E-01    2.38       0.0  T
   2    -42.6583866 -0.166253E-05  0.694E-02    2.38       1.0  T
   3    -42.6583823  0.424897E-05  0.148E-02    2.38       1.3  T
   4    -42.6583874 -0.508493E-05  0.262E-03    2.38       7.6  T
   5    -42.6583874 -0.308954E-07  0.139E-03    2.38      14.3  T
   6    -42.6583874 -0.385995E-08  0.454E-04    2.38      44.0  T
   7    -42.6583874 -0.278580E-08  0.134E-04    2.38     149.8  T
     SCC iter.                  ...        0 min,  0.010 sec
     gradient                   ...        0 min,  0.013 sec
 * total energy  :   -49.6701882 Eh     change       -0.9455280E-03 Eh
   gradient norm :     0.0758213 Eh/α   predicted    -0.7360505E-03 ( -22.15%)
   displ. norm   :     0.4120523 α      lambda       -0.1312574E-02
   maximum displ.:     0.3007681 α      in ANC's #1, #4, #5, ...

........................................................................
.............................. CYCLE   48 ..............................
........................................................................

 iter      E             dE          RMSdq      gap      omega  full diag
   1    -42.6590160 -0.426590E+02  0.143E-01    2.39       0.0  T
   2    -42.6590187 -0.266402E-05  0.843E-02    2.38       1.0  T
   3    -42.6590100  0.862058E-05  0.209E-02    2.39       1.0  T
   4    -42.6590200 -0.100025E-04  0.328E-03    2.38       6.1  T
   5    -42.6590201 -0.899716E-07  0.180E-03    2.38      11.1  T
   6    -42.6590201 -0.104150E-07  0.703E-04    2.38      28.5  T
   7    -42.6590201 -0.529046E-08  0.182E-04    2.38     110.1  T
     SCC iter.                  ...        0 min,  0.010 sec
     gradient                   ...        0 min,  0.013 sec
 * total energy  :   -49.6712832 Eh     change       -0.1094994E-02 Eh
   gradient norm :     0.0822803 Eh/α   predicted    -0.7677307E-03 ( -29.89%)
   displ. norm   :     0.5350159 α      lambda       -0.1648502E-02
   maximum displ.:     0.3973008 α      in ANC's #1, #4, #3, ...

........................................................................
.............................. CYCLE   49 ..............................
........................................................................

 iter      E             dE          RMSdq      gap      omega  full diag
   1    -42.6606485 -0.426606E+02  0.194E-01    2.38       0.0  T
   2    -42.6606537 -0.523716E-05  0.114E-01    2.37       1.0  T
   3    -42.6606359  0.177771E-04  0.303E-02    2.39       1.0  T
   4    -42.6606565 -0.206094E-04  0.452E-03    2.38       4.4  T
   5    -42.6606567 -0.166177E-06  0.258E-03    2.38       7.8  T
   6    -42.6606567 -0.286033E-07  0.112E-03    2.38      17.9  T
   7    -42.6606567 -0.122487E-07  0.260E-04    2.38      76.9  T
   8    -42.6606567 -0.693156E-09  0.132E-04    2.38     151.6  T
     SCC iter.                  ...        0 min,  0.011 sec
     gradient                   ...        0 min,  0.013 sec
 * total energy  :   -49.6725309 Eh     change       -0.1247727E-02 Eh
   gradient norm :     0.0540504 Eh/α   predicted    -0.1060212E-02 ( -15.03%)
   displ. norm   :     0.4181420 α      lambda       -0.1075964E-02
   maximum displ.:     0.3200377 α      in ANC's #1, #4, #3, ...

........................................................................
.............................. CYCLE   50 ..............................
........................................................................

 iter      E             dE          RMSdq      gap      omega  full diag
   1    -42.6634003 -0.426634E+02  0.157E-01    2.37       0.0  T
   2    -42.6634028 -0.255756E-05  0.921E-02    2.37       1.0  T
   3    -42.6633967  0.615016E-05  0.182E-02    2.38       1.1  T
   4    -42.6634041 -0.741708E-05  0.323E-03    2.37       6.2  T
   5    -42.6634041 -0.499486E-07  0.191E-03    2.37      10.5  T
   6    -42.6634041 -0.157697E-07  0.784E-04    2.37      25.5  T
   7    -42.6634041 -0.786078E-08  0.172E-04    2.37     116.4  T
     SCC iter.                  ...        0 min,  0.010 sec
     gradient                   ...        0 min,  0.013 sec
 * total energy  :   -49.6733498 Eh     change       -0.8189395E-03 Eh
   gradient norm :     0.0370909 Eh/α   predicted    -0.6320563E-03 ( -22.82%)
   displ. norm   :     0.3517857 α      lambda       -0.8505359E-03
   maximum displ.:     0.2831329 α      in ANC's #1, #3, #4, ...

........................................................................
.............................. CYCLE   51 ..............................
........................................................................

 iter      E             dE          RMSdq      gap      omega  full diag
   1    -42.6664929 -0.426665E+02  0.137E-01    2.36       0.0  T
   2    -42.6664961 -0.325986E-05  0.804E-02    2.36       1.0  T
   3    -42.6664965 -0.365574E-06  0.498E-03    2.36       4.0  T
   4    -42.6664966 -0.127667E-06  0.215E-03    2.36       9.3  T
   5    -42.6664966 -0.148118E-07  0.120E-03    2.36      16.7  T
   6    -42.6664966 -0.661649E-08  0.467E-04    2.36      42.8  T
   7    -42.6664966 -0.431270E-08  0.119E-04    2.36     168.5  T
     SCC iter.                  ...        0 min,  0.010 sec
     gradient                   ...        0 min,  0.013 sec
 * total energy  :   -49.6739939 Eh     change       -0.6441072E-03 Eh
   gradient norm :     0.0324347 Eh/α   predicted    -0.4779040E-03 ( -25.80%)
   displ. norm   :     0.3110892 α      lambda       -0.6774631E-03
   maximum displ.:     0.2624601 α      in ANC's #1, #3, #10, ...

........................................................................
.............................. CYCLE   52 ..............................
........................................................................

 iter      E             dE          RMSdq      gap      omega  full diag
   1    -42.6681517 -0.426682E+02  0.123E-01    2.36       0.0  T
   2    -42.6681572 -0.542338E-05  0.719E-02    2.36       1.0  T
   3    -42.6681557  0.149883E-05  0.120E-02    2.35       1.7  T
   4    -42.6681574 -0.178133E-05  0.476E-03    2.36       4.2  T
   5    -42.6681579 -0.431655E-06  0.165E-03    2.36      12.1  T
   6    -42.6681579 -0.152144E-07  0.801E-04    2.36      25.0  T
   7    -42.6681579 -0.429767E-08  0.192E-04    2.36     104.2  T
     SCC iter.                  ...        0 min,  0.010 sec
[...]
H            2.94375818546909        1.84347792858324        0.38003778553869
H            2.50970142700452        0.23967656411923       -1.03840731133574
H           -1.62891893317552        3.08876701114281       -0.25839575931877
H           -2.93874401584757        2.01901258339523       -0.83745448194438
H           -2.65953667298023        2.20130357131380        0.89918451423528
H           -1.02107778165620       -3.08774425854582        1.14586355607634
H           -1.21979136042800       -3.25704317068112       -0.62474708723850
H           -2.50748632037983       -2.52832822405130        0.35481415221805
H            1.39990028996216       -2.96033183160560       -0.04621015725553

 Bond Distances (Angstroems)
 ---------------------------
C1-N2=1.5055         C1-H15=1.0884        C1-H16=1.0884        C1-H17=1.0908        N2-C1=1.5055         N2-C3=1.4969         
N2-C6=1.4616         N2-H18=0.4973        C3-N2=1.4969         C3-N4=1.3057         N4-C3=1.3057         N4-C5=1.4031         
N4-H25=1.0140        C5-N4=1.4031         C5-C6=1.3609         C5-N13=1.3317        C6-N2=1.4616         C6-C5=1.3609         
C6-C7=1.4465         C7-C6=1.4465         C7-O8=1.2049         C7-N9=1.3949         O8-C7=1.2049         N9-C7=1.3949         
N9-C10=1.4583        N9-C11=1.3800        C10-N9=1.4583        C10-H19=1.0870       C10-H20=1.0890       C10-H21=1.0893       
C11-N9=1.3800        C11-O12=1.1946       C11-N13=1.4280       O12-C11=1.1946       N13-C5=1.3317        N13-C11=1.4280       
N13-C14=1.4506       C14-N13=1.4506       C14-H22=1.0902       C14-H23=1.0902       C14-H24=1.0898       H15-C1=1.0884        
H16-C1=1.0884        H17-C1=1.0908        H18-N2=0.4973        H19-C10=1.0870       H20-C10=1.0890       H21-C10=1.0893       
H22-C14=1.0902       H23-C14=1.0902       H24-C14=1.0898       H25-N4=1.0140        
 C  H  Rav=1.0892 sigma=0.0011  Rmin=1.0870  Rmax=1.0908     9
 C  C  Rav=1.4037 sigma=0.0428  Rmin=1.3609  Rmax=1.4465     2
 N  H  Rav=0.7557 sigma=0.2584  Rmin=0.4973  Rmax=1.0140     2
 N  C  Rav=1.4197 sigma=0.0609  Rmin=1.3057  Rmax=1.5055    11
 O  C  Rav=1.1997 sigma=0.0051  Rmin=1.1946  Rmax=1.2049     2

 selected bond angles (degree)
 --------------------
H15-C1-N2=111.35               H16-C1-N2=108.37               H16-C1-H15=109.52              H17-C1-N2=107.73               
H17-C1-H15=109.66              H17-C1-H16=110.18              C3-N2-C1=106.48                C6-N2-C1=111.57                
C6-N2-C3=103.92                H18-N2-C1=107.55               H18-N2-C3=112.92               H18-N2-C6=114.18               
N4-C3-N2=106.21                C5-N4-C3=113.94                H25-N4-C3=121.62               H25-N4-C5=124.44               
C6-C5-N4=106.85                N13-C5-N4=129.37               N13-C5-C6=123.78               C5-C6-N2=108.99                
C7-C6-N2=128.11                C7-C6-C5=122.90                O8-C7-C6=125.24                N9-C7-C6=110.39                
N9-C7-O8=124.36                C10-N9-C7=117.26               C11-N9-C7=128.06               C11-N9-C10=114.67              
H19-C10-N9=108.05              H20-C10-N9=109.68              H20-C10-H19=110.47             H21-C10-N9=109.79              
H21-C10-H19=110.30             H21-C10-H20=108.54             

 selected dihedral angles (degree)
 ---------------------------------
C3-N2-C1-H15=302.24           C3-N2-C1-H16= 62.76           C3-N2-C1-H17=181.96           C6-N2-C1-H15= 54.99           
C6-N2-C1-H16=175.51           C6-N2-C1-H17=294.71           H18-N2-C1-H15=180.94          H18-N2-C1-H16=301.46          
H18-N2-C1-H17= 60.66          N4-C3-N2-C1=120.45            N4-C3-N2-C6=  2.52            N4-C3-N2-H18=238.26           
C5-N4-C3-N2=358.87            H25-N4-C3-N2=179.55           C6-C5-N4-C3=359.14            C6-C5-N4-H25=178.44           
N13-C5-N4-C3=179.59           N13-C5-N4-H25=358.88          C5-C6-N2-C1=242.55            C5-C6-N2-C3=356.90            
C5-C6-N2-H18=120.33           C7-C6-N2-C1= 63.08            C7-C6-N2-C3=177.43            C7-C6-N2-H18=300.87           
N2-C6-C5-N4=  2.52            N2-C6-C5-N13=182.10           C7-C6-C5-N4=182.02            C7-C6-C5-N13=  1.60           
O8-C7-C6-N2=357.50            O8-C7-C6-C5=178.10            N9-C7-C6-N2=178.42            N9-C7-C6-C5=359.02            
C10-N9-C7-C6=180.28           C10-N9-C7-O8=  1.20           C11-N9-C7-C6=359.32           C11-N9-C7-O8=180.24           
H19-C10-N9-C7=  0.83          H19-C10-N9-C11=181.66         H20-C10-N9-C7=121.31          H20-C10-N9-C11=302.14         
H21-C10-N9-C7=240.50          H21-C10-N9-C11= 61.33         
           -------------------------------------------------
          |                Final Singlepoint                |
           -------------------------------------------------

          ...................................................
          :                      SETUP                      :
          :.................................................:
          :  # basis functions                  67          :
          :  # atomic orbitals                  67          :
          :  # shells                           39          :
          :  # electrons                        74          :
          :  max. iterations                   250          :
          :  Hamiltonian                  GFN2-xTB          :
          :  restarted?                      false          :
          :  GBSA solvation                  false          :
          :  PC potential                    false          :
          :  electronic temp.         2500.0000000     K    :
          :  accuracy                    1.0000000          :
          :  -> integral cutoff          0.2500000E+02      :
          :  -> integral neglect         0.1000000E-07      :
          :  -> SCF convergence          0.1000000E-05 Eh   :
          :  -> wf. convergence          0.1000000E-03 e    :
          :  Broyden damping             0.4000000          :
          ...................................................

 iter      E             dE          RMSdq      gap      omega  full diag
   1    -42.6673601 -0.426674E+02  0.106E-04    2.39       0.0  T
   2    -42.6673601 -0.682121E-10  0.560E-05    2.39     357.0  T
   3    -42.6673601 -0.311928E-10  0.356E-05    2.39     562.5  T

   *** convergence criteria satisfied after 3 iterations ***

         #    Occupation            Energy/Eh            Energy/eV
      -------------------------------------------------------------
         1        2.0000           -0.9232281             -25.1223
       ...           ...                  ...                  ...
        31        2.0000           -0.6284916             -17.1021
        32        2.0000           -0.6038565             -16.4318
        33        1.9999           -0.5952948             -16.1988
        34        1.9995           -0.5859109             -15.9434
        35        1.9975           -0.5724487             -15.5771
        36        1.9968           -0.5707208             -15.5301
        37        1.9947           -0.5666810             -15.4202 (HOMO)
        38        0.0116           -0.4789891             -13.0340 (LUMO)
        39        0.0000           -0.4104824             -11.1698
        40        0.0000           -0.3884953             -10.5715
        41                         -0.3044659              -8.2849
        42                         -0.2469409              -6.7196
       ...                                ...                  ...
        67                          3.6625548              99.6632
      -------------------------------------------------------------
                  HL-Gap            0.0876919 Eh            2.3862 eV
             Fermi-level           -0.5196848 Eh          -14.1413 eV

 SCC (total)                   0 d,  0 h,  0 min,  0.036 sec
 SCC setup                      ...        0 min,  0.000 sec (  0.525%)
 Dispersion                     ...        0 min,  0.000 sec (  0.512%)
 classical contributions        ...        0 min,  0.000 sec (  0.194%)
 integral evaluation            ...        0 min,  0.005 sec ( 13.827%)
 iterations                     ...        0 min,  0.005 sec ( 12.595%)
 molecular gradient             ...        0 min,  0.026 sec ( 71.961%)
 printout                       ...        0 min,  0.000 sec (  0.347%)

         :::::::::::::::::::::::::::::::::::::::::::::::::::::
         ::                     SUMMARY                     ::
         :::::::::::::::::::::::::::::::::::::::::::::::::::::
         :: total energy             -49.675546528433 Eh    ::
         :: gradient norm              0.003243788103 Eh/a0 ::
         :: HOMO-LUMO gap              2.386217976329 eV    ::
         ::.................................................::
         :: SCC energy               -42.667360066040 Eh    ::
         :: -> isotropic ES            0.141921723339 Eh    ::
         :: -> anisotropic ES          0.001050793268 Eh    ::
         :: -> anisotropic XC          0.011772397064 Eh    ::
         :: -> dispersion             -0.023015542013 Eh    ::
         :: repulsion energy           1.549963112427 Eh    ::
         :: add. restraining          -8.558319568383 Eh    ::
         :: total charge               1.000000000000 e     ::
         :::::::::::::::::::::::::::::::::::::::::::::::::::::

           -------------------------------------------------
          |                Property Printout                |
           -------------------------------------------------

    * Orbital Energies and Occupations

         #    Occupation            Energy/Eh            Energy/eV
      -------------------------------------------------------------
         1        2.0000           -0.9232281             -25.1223
       ...           ...                  ...                  ...
        25        2.0000           -0.6734201             -18.3247
        26        2.0000           -0.6647984             -18.0901
        27        2.0000           -0.6617839             -18.0081
        28        2.0000           -0.6593786             -17.9426
        29        2.0000           -0.6385442             -17.3757
        30        2.0000           -0.6324073             -17.2087
        31        2.0000           -0.6284916             -17.1021
        32        2.0000           -0.6038565             -16.4318
        33        1.9999           -0.5952948             -16.1988
        34        1.9995           -0.5859109             -15.9434
        35        1.9975           -0.5724487             -15.5771
        36        1.9968           -0.5707208             -15.5301
        37        1.9947           -0.5666810             -15.4202 (HOMO)
        38        0.0116           -0.4789891             -13.0340 (LUMO)
        39        0.0000           -0.4104824             -11.1698
        40        0.0000           -0.3884953             -10.5715
        41                         -0.3044659              -8.2849
        42                         -0.2469409              -6.7196
        43                         -0.2094141              -5.6984
        44                         -0.2060396              -5.6066
        45                         -0.1751849              -4.7670
        46                         -0.1629466              -4.4340
        47                         -0.1216462              -3.3102
        48                         -0.0480806              -1.3083
       ...                                ...                  ...
        67                          3.6625548              99.6632
      -------------------------------------------------------------
                  HL-Gap            0.0876919 Eh            2.3862 eV
             Fermi-level           -0.5196848 Eh          -14.1413 eV

     #   Z          covCN         q      C6AA      α(0)
     1   6 C        3.713    -0.087    22.294     6.747
     2   7 N        3.626     0.051    20.352     6.700
     3   6 C        1.950    -0.090    33.538     9.352
     4   7 N        2.766    -0.018    21.604     6.903
     5   6 C        2.939     0.122    25.317     8.252
     6   6 C        3.014    -0.051    29.249     8.871
     7   6 C        2.765     0.271    22.419     7.754
     8   8 O        0.858    -0.374    21.159     6.167
     9   7 N        2.748    -0.087    22.933     7.112
    10   6 C        3.710    -0.062    21.830     6.677
    11   6 C        2.728     0.318    21.593     7.607
    12   8 O        0.859    -0.349    20.691     6.099
    13   7 N        2.740    -0.058    22.364     7.024
    14   6 C        3.695    -0.071    22.035     6.715
    15   1 H        0.925     0.106     1.730     2.057
    16   1 H        0.925     0.129     1.540     1.941
    17   1 H        0.924     0.132     1.517     1.926
    18   1 H        0.895     0.269     0.810     1.409
    19   1 H        0.925     0.113     1.669     2.020
    20   1 H        0.925     0.099     1.790     2.092
    21   1 H        0.925     0.098     1.803     2.100
    22   1 H        0.924     0.086     1.921     2.168
    23   1 H        0.924     0.086     1.923     2.168
    24   1 H        0.925     0.129     1.542     1.942
    25   1 H        0.860     0.236     0.940     1.519

 Mol. C6AA /au·bohr⁶  :       6559.510573
 Mol. C8AA /au·bohr⁸  :     151279.238556
 Mol. α(0) /au        :        123.322739


Wiberg/Mayer (AO) data.
largest (>0.10) Wiberg bond orders for each atom

 ---------------------------------------------------------------------------
     #   Z sym  total        # sym  WBO       # sym  WBO       # sym  WBO
 ---------------------------------------------------------------------------
     1   6 C    3.877 --    15 H    0.982    16 H    0.970    17 H    0.965
                             2 N    0.886
     2   7 N    3.741 --     6 C    0.949     3 C    0.949     1 C    0.886
                            18 H    0.883
     3   6 C    2.776 --     4 N    1.598     2 N    0.949
     4   7 N    3.672 --     3 C    1.598     5 C    1.063    25 H    0.911
     5   6 C    3.968 --     6 C    1.473    13 N    1.259     4 N    1.063
     6   6 C    3.897 --     5 C    1.473     7 C    1.079     2 N    0.949
     7   6 C    3.966 --     8 O    1.698     9 N    1.096     6 C    1.079
     8   8 O    2.061 --     7 C    1.698     9 N    0.155
     9   7 N    3.576 --    11 C    1.134     7 C    1.096    10 C    0.966
                             8 O    0.155    12 O    0.147
    10   6 C    3.916 --    19 H    0.970     9 N    0.966    21 H    0.965
                            20 H    0.965
    11   6 C    3.960 --    12 O    1.731     9 N    1.134    13 N    1.002
    12   8 O    2.098 --    11 C    1.731     9 N    0.147    13 N    0.120
    13   7 N    3.586 --     5 C    1.259    11 C    1.002    14 C    0.973
                            12 O    0.120
    14   6 C    3.922 --    13 N    0.973    23 H    0.970    22 H    0.969
                            24 H    0.963
    15   1 H    0.989 --     1 C    0.982
    16   1 H    0.982 --     1 C    0.970
    17   1 H    0.982 --     1 C    0.965
    18   1 H    0.927 --     2 N    0.883
    19   1 H    0.987 --    10 C    0.970
    20   1 H    0.988 --    10 C    0.965
    21   1 H    0.988 --    10 C    0.965
    22   1 H    0.990 --    14 C    0.969
    23   1 H    0.990 --    14 C    0.970
    24   1 H    0.983 --    14 C    0.963
    25   1 H    0.944 --     4 N    0.911
 ---------------------------------------------------------------------------

Topologies differ in total number of bonds
Writing topology from bond orders to xtbtopo.mol

molecular dipole:
                 x           y           z       tot (Debye)
 q only:        2.395      -1.647       0.022
   full:        2.153      -1.832      -0.092       7.190
molecular quadrupole (traceless):
                xx          xy          yy          xz          yz          zz
 q only:       10.414      -2.593       3.774       0.836       1.023     -14.188
  q+dip:        3.251      -0.453       4.998       0.760       0.485      -8.249
   full:        2.066      -0.480       4.160       1.451       1.032      -6.226

           -------------------------------------------------
          |                Geometry Summary                 |
           -------------------------------------------------

      molecular mass/u    :      195.1988581
   center of mass at/Å    :        0.0509453      -0.0321132      -0.1087646
  moments of inertia/u·Å² :        0.4807339E+03   0.7145208E+03   0.1154772E+04
rotational constants/cm⁻¹ :        0.3506645E-01   0.2359292E-01   0.1459824E-01

 * 23 selected distances

     #   Z          #   Z                                           value/Å
     1   6 C        2   7 N                                       1.5055255 (max)
     3   6 C        4   7 N                                       1.3057280
     4   7 N        5   6 C                                       1.4031065
     2   7 N        6   6 C                                       1.4616422
     5   6 C        6   6 C                                       1.3609338
     7   6 C        8   8 O                                       1.2048658
     7   6 C        9   7 N                                       1.3948934
     9   7 N       10   6 C                                       1.4582536
     9   7 N       11   6 C                                       1.3799619
    11   6 C       12   8 O                                       1.1946297
     5   6 C       13   7 N                                       1.3317356
    13   7 N       14   6 C                                       1.4505606
     1   6 C       15   1 H                                       1.0884326
     1   6 C       16   1 H                                       1.0884040
     1   6 C       17   1 H                                       1.0907947
     2   7 N       18   1 H                                       0.4973441 (min)
    10   6 C       19   1 H                                       1.0870116
    10   6 C       20   1 H                                       1.0889911
    10   6 C       21   1 H                                       1.0893255
    14   6 C       22   1 H                                       1.0902098
    14   6 C       23   1 H                                       1.0902215
    14   6 C       24   1 H                                       1.0898266
     4   7 N       25   1 H                                       1.0140463

 * 5 distinct bonds (by element types)

   Z      Z             #   av. dist./Å        max./Å        min./Å
   1 H    6 C           9     1.0892464     1.0907947     1.0870116
   6 C    6 C           1     1.3609338     1.3609338     1.3609338
   1 H    7 N           2     0.7556952     1.0140463     0.4973441
   6 C    7 N           9     1.4101564     1.5055255     1.3057280
   6 C    8 O           2     1.1997477     1.2048658     1.1946297


optimized geometry written to: xtbopt.xyz


           -------------------------------------------------
          | TOTAL ENERGY              -49.675546528433 Eh   |
          | GRADIENT NORM               0.003243788103 Eh/α |
          | HOMO-LUMO GAP               2.386217976329 eV   |
           -------------------------------------------------

------------------------------------------------------------------------
 * finished run on 2024/06/05 at 19:58:10.565     
------------------------------------------------------------------------
 total:
 * wall-time:     0 d,  0 h,  0 min,  2.027 sec
 *  cpu-time:     0 d,  0 h,  0 min,  1.919 sec
 * ratio c/w:     0.947 speedup
 SCF:
 * wall-time:     0 d,  0 h,  0 min,  0.041 sec
 *  cpu-time:     0 d,  0 h,  0 min,  0.036 sec
 * ratio c/w:     0.888 speedup
 ANC optimizer:
 * wall-time:     0 d,  0 h,  0 min,  1.956 sec
 *  cpu-time:     0 d,  0 h,  0 min,  1.869 sec
 * ratio c/w:     0.956 speedup

