25
 energy: -41.117226960057 gnorm: 5.850365239799 xtb: 6.6.1 (8d0f1dd)
C            3.15757808411011        0.77714009563799        0.46392773725973
N            2.36141121942019        0.06498455188763       -0.59699617165109
C            2.63727705660396       -1.39628085753588       -0.42588627782142
N            1.48302840727767       -1.96034214706359       -0.19249771321840
C            0.40737239551453       -1.06033341210408       -0.15180560442139
C            0.92396760060949        0.18154979035283       -0.35916041780222
C            0.11591664798814        1.38119842068774       -0.34394361372632
O            0.53287904191599        2.50217650156741       -0.48972376409007
N           -1.22262455952245        1.06272772238393       -0.11457234460993
C           -2.17467863234353        2.16662209207018       -0.07566916655465
C           -1.78097757609613       -0.18612607451797        0.06681302806148
O           -2.95040493463980       -0.36177274104841        0.23630549025952
N           -0.88656856220874       -1.29921767789234        0.05354923713826
C           -1.42827972077256       -2.63137280839133        0.24338423492705
H            2.89224303267788        0.42773578082993        1.46001969792723
H            4.21448719559549        0.59075913106649        0.28274205524644
H            2.94375818546909        1.84347792858324        0.38003778553869
H            2.50970142700452        0.23967656411923       -1.03840731133574
H           -1.62891893317552        3.08876701114281       -0.25839575931877
H           -2.93874401584757        2.01901258339523       -0.83745448194438
H           -2.65953667298023        2.20130357131380        0.89918451423528
H           -1.02107778165620       -3.08774425854582        1.14586355607634
H           -1.21979136042800       -3.25704317068112       -0.62474708723850
H           -2.50748632037983       -2.52832822405130        0.35481415221805
H            1.39990028996216       -2.96033183160560       -0.04621015725553
25
 energy: -42.112772011249 gnorm: 0.124342741500 xtb: 6.6.1 (8d0f1dd)
C            3.15742386525966        0.77653961069445        0.47254926292870
N            2.28402874524493       -0.02624460410269       -0.36140505064540
C            2.63582884129705       -1.40270897547706       -0.41998655310761
N            1.48235677628379       -1.96215405974064       -0.19204196064506
C            0.40583339025633       -1.06105444083019       -0.15120923498702
C            0.91694260142909        0.17854401450879       -0.35073047785477
C            0.11578910718958        1.38133123078944       -0.34470079236406
O            0.53305320884977        2.50215678393999       -0.48947601633785
N           -1.22262101552770        1.06278335450487       -0.11479578728669
C           -2.17468711022205        2.16664075051455       -0.07565808575605
C           -1.78099679267414       -0.18617010206253        0.06683005208599
O           -2.95041111841902       -0.36174996745753        0.23631665904471
N           -0.88683746701107       -1.29934256402897        0.05337925431669
C           -1.42829473251151       -2.63137372591808        0.24338422305855
H            2.89296010228477        0.42834983447199        1.46117534264804
H            4.21420743521967        0.59044866793901        0.28231610141372
H            2.94345218394646        1.84323136212613        0.37966008752176
H            2.59815914909097        0.34358213487436       -1.29732359887166
H           -1.62892395338137        3.08876636128401       -0.25840403746677
H           -2.93875366127885        2.01902317503445       -0.83745900943186
H           -2.65953429856006        2.20129633656266        0.89917808961839
H           -1.02107660393303       -3.08774012029084        1.14586780197207
H           -1.21978947716524       -3.25704467728310       -0.62473522814751
H           -2.50747665287733       -2.52833176007408        0.35482569347587
H            1.39979899130795       -2.96054007837800       -0.04638511728251
25
 energy: -42.127138522973 gnorm: 0.062620729808 xtb: 6.6.1 (8d0f1dd)
C            3.16998561582895        0.79707731349791        0.49299361912751
N            2.32617978637741       -0.00003485371215       -0.40393111976595
C            2.61925060578899       -1.40707494142478       -0.39576015394062
N            1.45557094363634       -1.98567031324833       -0.20354416022302
C            0.39011201925795       -1.07711571042641       -0.15018405701411
C            0.91849332707441        0.16850233373297       -0.34623704593494
C            0.11572124961886        1.37302232342014       -0.33071832318187
O            0.53491192313378        2.49217459765017       -0.48709256806287
N           -1.22443099831939        1.05726555690008       -0.11470641795284
C           -2.17441694552177        2.16436452318050       -0.07701099679554
C           -1.78882317248487       -0.19048713912089        0.06843577864333
O           -2.95916886504013       -0.35892226305324        0.23903142191177
N           -0.90362419024886       -1.30923658279375        0.05012421770672
C           -1.44164132789664       -2.63953310349095        0.24467655194218
H            2.94217232138625        0.48742291144875        1.51507542531988
H            4.21884197241519        0.59919361242855        0.28530026140909
H            2.95143672283706        1.85779470855813        0.37630099636101
H            2.64247524115049        0.36189914055823       -1.33855313847085
H           -1.62776046670215        3.08589761044383       -0.25972580169093
H           -2.93917846310090        2.01865515339933       -0.83838686000038
H           -2.65916573693476        2.20026730822496        0.89771622005057
H           -1.02699970057074       -3.08912784089515        1.14750001864653
H           -1.22900474116738       -3.26539396037299       -0.62179086434159
H           -2.51963957581093       -2.53687797296463        0.35959837079045
H            1.36913396939152       -2.98582387033929       -0.07793975663388
25
 energy: -42.130805947157 gnorm: 0.026507163882 xtb: 6.6.1 (8d0f1dd)
C            3.17570424320451        0.80660769382413        0.49917432128837
N            2.35081787060123        0.01480170420985       -0.44863896124814
C            2.62049330404900       -1.41710379165226       -0.37476564640403
N            1.44995701386446       -1.99162374377631       -0.19550992610538
C            0.38766944020182       -1.08057379839304       -0.14119871006499
C            0.92009533581505        0.16428658429224       -0.32650957214737
C            0.11602388397200        1.36690780175898       -0.31198864889906
O            0.53804361204448        2.48518206086064       -0.47107115763430
N           -1.22662575229072        1.05383862803640       -0.11141804222125
C           -2.17479461058435        2.16267504478260       -0.07858858714521
C           -1.79393515789412       -0.19269769534874        0.06989900607215
O           -2.96546647086042       -0.35854229444937        0.23881051552912
N           -0.90989186376131       -1.31115398832118        0.04829994485110
C           -1.44987894214190       -2.64158997384002        0.24343662697297
H            2.95797238783387        0.51310758104717        1.52901513314629
H            4.22450923685639        0.60898667072851        0.29321945648597
H            2.94824999994719        1.86325819400687        0.37260463266066
H            2.66407320187758        0.36839282338832       -1.38255209909840
H           -1.62478445193566        3.08212166383941       -0.26182087841831
H           -2.93697862829469        2.01740847338474       -0.84273187985350
H           -2.66266746665441        2.20133942311323        0.89450293663330
H           -1.03718624048924       -3.09121355521704        1.14739801504258
H           -1.23834655391424       -3.27056485977478       -0.62111925065721
H           -2.52819661639952       -2.54062515798789        0.35825995229538
H            1.35557473905166       -2.99498694691148       -0.09553556318108
25
 energy: -42.131245585915 gnorm: 0.016187779827 xtb: 6.6.1 (8d0f1dd)
C            3.17531670948407        0.80552122612181        0.49899179286818
N            2.35537441809030        0.02069493338507       -0.46530501476474
C            2.62334513596305       -1.42123463285112       -0.37807709651009
N            1.45470044982513       -1.98878942012687       -0.18964545117585
C            0.39086081494890       -1.07887714439642       -0.13797669021304
C            0.92111924363973        0.16490101250385       -0.31685349192442
C            0.11631083904386        1.36588760931832       -0.30908987864986
O            0.53932289161787        2.48510057215078       -0.45942852670836
N           -1.22670298063650        1.05279488073768       -0.11050061541399
C           -2.17438034909812        2.16163710551217       -0.08011916119125
C           -1.79350170297416       -0.19366163866238        0.07095437894616
O           -2.96490370472075       -0.35995391780977        0.23944726372768
N           -0.90819361337335       -1.31069823919194        0.04899110394361
C           -1.45186865185103       -2.64074474348885        0.24435033736957
H            2.94702285218781        0.50315950494572        1.51986005290305
H            4.22733900576265        0.61464409849993        0.30021701203770
H            2.94477873554123        1.86247967893474        0.37642105610970
H            2.66563831066188        0.37164254043796       -1.39824383905890
H           -1.62341974813755        3.08029229185834       -0.26465489668604
H           -2.93539127481879        2.01499100572677       -0.84518168855843
H           -2.66371984200659        2.20229612629589        0.89210805763910
H           -1.04252095066442       -3.09260253210632        1.14861455845877
H           -1.24422945462476       -3.27143480123476       -0.62006670499230
H           -2.53041378118746       -2.53740089693793        0.35824200110461
H            1.35854816142566       -2.99240607802168       -0.09188294136121
25
 energy: -42.131430994526 gnorm: 0.011654173121 xtb: 6.6.1 (8d0f1dd)
C            3.17090042738412        0.79975675702138        0.49932475998093
N            2.35486356339593        0.02530406058680       -0.47684968040697
C            2.62656265774086       -1.42245168708944       -0.38921988552835
N            1.46105092239995       -1.98489591355235       -0.19000715353135
C            0.39515265985032       -1.07614531086633       -0.13601063433372
C            0.92213662083355        0.16712535981211       -0.31151883143298
C            0.11717038426361        1.36728290488151       -0.30750741675448
O            0.53974482104604        2.48740579504598       -0.45242432764050
N           -1.22595983451903        1.05313717668172       -0.10987382500355
C           -2.17438628893164        2.16104226837425       -0.08323365614335
C           -1.79110014485979       -0.19372927971204        0.07302494355501
O           -2.96230005868565       -0.36101526800580        0.24127550505571
N           -0.90405852522828       -1.30949020654900        0.05255693067092
C           -1.45084291410094       -2.63892083247099        0.24756232967565
H            2.93023890843533        0.48310275598984        1.51108069972758
H            4.22573957120007        0.61546207704819        0.30685293581079
H            2.94049184780406        1.85834232850170        0.38580804450446
H            2.66251890476314        0.37491512776857       -1.40802432645856
H           -1.62364364915650        3.07960851678961       -0.26886538312593
H           -2.93436455321903        2.01203587908282       -0.84892842296499
H           -2.66507048691343        2.20368744058670        0.88819866038588
H           -1.04371106834337       -3.09317929769096        1.15139224160851
H           -1.24683784567073       -3.26989855044011       -0.61766026044242
H           -2.52939572775176       -2.53213274919555        0.36121081468048
H            1.36553132236184       -2.98811081099761       -0.08699244398910
25
 energy: -42.131519441084 gnorm: 0.009433120449 xtb: 6.6.1 (8d0f1dd)
C            3.16554224675698        0.79257880253906        0.50141175135751
N            2.35312215832346        0.02966873915266       -0.48456249280175
C            2.62832045285274       -1.42059379693327       -0.40213093112783
N            1.46533630348319       -1.98166871004417       -0.19517348417499
C            0.39819288930964       -1.07363328624282       -0.13540161063799
C            0.92303579199024        0.16971829341703       -0.31159317519389
C            0.11785954822786        1.36965582146217       -0.30818685436820
O            0.53926752093156        2.49022582161092       -0.45183916159878
N           -1.22511405701410        1.05431066403824       -0.11001609689630
C           -2.17492495334550        2.16092898050704       -0.08665399268776
C           -1.78847787903586       -0.19297564227208        0.07546223153078
O           -2.95947520906380       -0.36099640674850        0.24425159748807
N           -0.90019322733126       -1.30812264383847        0.05731927354005
C           -1.44809803473800       -2.63716868887492        0.25215056817531
H            2.91547745993680        0.46215197243161        1.50664420755666
H            4.22188093983286        0.61168554850382        0.31377830542701
H            2.93727101616145        1.85311299860856        0.39905821683552
H            2.65938141922837        0.37838598822334       -1.41350417893268
H           -1.62522675686074        3.07984528819478       -0.27361144537938
H           -2.93422209671532        2.00917702632915       -0.85249779963205
H           -2.66642997552786        2.20527133684443        0.88431574343484
H           -1.04077665205074       -3.09284401245174        1.15497670697224
H           -1.24637201100164       -3.26754744371943       -0.61408079803468
H           -2.52643627345426       -2.52831888175646        0.36692657988934
H            1.37149089320259       -2.98460922737995       -0.08587154284141
