25
 energy: 0.000000000000 xtb: 6.6.1 (8d0f1dd)
C            3.23720132972391        1.16630909158653        0.08434468864950
N            2.29877796055224        0.07527476373246        0.03981602671198
C            2.58028186251803       -1.21425391179017        0.03006175752192
N            1.43813944744728       -1.93419254010258        0.00098261751768
C            0.39035684826767       -1.05887462812143       -0.00790371763344
C            0.93510047688824        0.21347817468824        0.01709077332874
C            0.09450143016486        1.40504290868848       -0.00410946993748
O            0.49712746915594        2.54126690785742       -0.00342325656480
N           -1.25076628431515        1.06271869620815       -0.03085477937476
C           -2.21907191394203        2.15522079838987       -0.05001256521996
C           -1.81739470187490       -0.20012724136556       -0.04692818139228
O           -2.99983858926755       -0.37846413507442       -0.07008877579474
N           -0.92618577614240       -1.30210203518959       -0.03682761236648
C           -1.46982251276835       -2.64643077634382       -0.06029819901142
H            3.71247229913541        1.21471443890471        1.06488839270555
H            4.00791460421487        1.03430799217987       -0.67357688121503
H            2.69909982127087        2.09770098766290       -0.09130154035862
H            3.56654087521359       -1.63682977417947        0.04233139674524
H           -1.67107945562430        3.09322822573871       -0.02552706696334
H           -2.82428927394145        2.09428605349656       -0.95318074103337
H           -2.87644002486466        2.07745706351925        0.81450059976605
H           -1.17061985538665       -3.19584861009707        0.83242224714061
H           -1.14560246782873       -3.17511580834413       -0.95688266944647
H           -2.55549768731684       -2.55659960601237       -0.07459039105944
H            1.38130842369251       -2.94313824728853       -0.01389874052104
25
 energy: -6.246500915253 xtb: 6.6.1 (8d0f1dd)
C            3.24133275830467        1.18424428666161        0.08023005593581
N            2.30460804802627        0.10848558766746        0.03201885150299
C            2.60243880101826       -1.23864369200019        0.03843050275756
N            1.42063221195433       -1.93946525200342        0.00172258907613
C            0.39872398378777       -1.06259488467529       -0.00883853055415
C            0.91844185084790        0.22509263880736        0.01440826834780
C            0.11398133689999        1.38453053155019        0.00078086435163
O            0.49080483360555        2.56013270698081        0.00973978808374
N           -1.26962024700485        1.04624285547787       -0.02807680786314
C           -2.21957339517049        2.14589847882528       -0.04409713800857
C           -1.81826813393251       -0.19952137884744       -0.04680692844409
O           -3.01726031822514       -0.38709858904605       -0.07101478585828
N           -0.93972400262472       -1.30294459714291       -0.03793718718617
C           -1.47584091731442       -2.64341935958106       -0.06423221281019
H            3.67136652840236        1.28084531366025        1.07721800170921
H            4.05049786921391        1.00198076507349       -0.62878546716904
H            2.73966375393943        2.12663914612917       -0.14428763560104
H            3.57654150489768       -1.65736403221229        0.04602635355005
H           -1.65717369800958        3.07754252070798       -0.01918219619303
H           -2.82513196625514        2.09533152808658       -0.94791979448183
H           -2.87719684505552        2.07497987556999        0.82172631038575
H           -1.17301258056793       -3.19888835565705        0.82658074176205
H           -1.15007433159017       -3.17448574108190       -0.96225996418001
H           -2.56121644137897       -2.55131071165068       -0.07753713301042
H            1.36743743320866       -2.94413088078011       -0.01544746005933
25
 energy: -5.909599284408 xtb: 6.6.1 (8d0f1dd)
C            3.24515643915515        1.19363868848600        0.07553732365159
N            2.30626561814130        0.11475870736586        0.02667619116488
C            2.60398123700962       -1.23847660804776        0.04603663319860
N            1.41918157415058       -1.93906564407253        0.00288394438613
C            0.39698094013257       -1.06320785708639       -0.01146591121105
C            0.91764029654936        0.22501849675004        0.01157083723508
C            0.11269963136256        1.38257620796072        0.00596602388898
O            0.48783274383614        2.55818545710323        0.02510612782227
N           -1.27178107305888        1.04240184652555       -0.02545772329869
C           -2.22032837918117        2.14238385511682       -0.03791896139035
C           -1.82232780278465       -0.20237019213836       -0.04779663091336
O           -3.02180187045124       -0.38832611435648       -0.07383094374539
N           -0.94266718899359       -1.30504793014805       -0.03967899057919
C           -1.48073076648691       -2.64607294491949       -0.06775738354527
H            3.62463539660977        1.33712266152663        1.08658267095217
H            4.08810904918185        0.96945354196387       -0.58276128472221
H            2.78229263110597        2.14685623308782       -0.19787326861830
H            3.57529998690877       -1.66702336206096        0.05031114426248
H           -1.65475720852644        3.07203155882985       -0.01088690249417
H           -2.82547751457753        2.09594423582709       -0.94168225304553
H           -2.87807350303017        2.07018215618745        0.82782878758984
H           -1.17943747747910       -3.20565969524845        0.82099563232609
H           -1.15640299895478       -3.17808533313465       -0.96588376680345
H           -2.56659823860234       -2.55458006242793       -0.08133038820943
H            1.36089144063751       -2.94388336857252       -0.01361769022556
25
 energy: -5.309105936324 xtb: 6.6.1 (8d0f1dd)
C            3.24862604851356        1.20305281333724        0.06998623742280
N            2.30700927985003        0.12123829016329        0.01988584509805
C            2.60478175686123       -1.23837188714000        0.05540749115952
N            1.41735223551285       -1.93907919358056        0.00378298866002
C            0.39518792754156       -1.06441136387446       -0.01376110798150
C            0.91591076247773        0.22457648363764        0.00872011819958
C            0.10985470297507        1.37907974419835        0.01123674197595
O            0.48032624785259        2.55543075013792        0.04088814803247
N           -1.27510592921106        1.03698991681955       -0.02247832487662
C           -2.22064219944219        2.13859461094442       -0.03162770681877
C           -1.82649195290936       -0.20667885071574       -0.04816070251886
O           -3.02632506890456       -0.39210955370604       -0.07545409084020
N           -0.94543236122681       -1.30768979763025       -0.04135841519844
C           -1.48539499988680       -2.64817932926725       -0.07153656541559
H            3.57299799940078        1.39502653760208        1.09270358363902
H            4.12418133920964        0.93504271480888       -0.53218530920962
H            2.82634964547503        2.16422555754687       -0.25281826095063
H            3.57260366808031       -1.67671849736052        0.05401818580123
H           -1.64934483169109        3.06484216482511       -0.00328628756669
H           -2.82554969412391        2.09732064168393       -0.93536655496982
H           -2.87831305256638        2.06675449796752        0.83426604399146
H           -1.18465901987472       -3.21032449312216        0.81586163917210
H           -1.16302964209365       -3.17991484367709       -0.97069642169245
H           -2.57147507500426       -2.55454130267126       -0.08454288623724
H            1.35463543095593       -2.94408291990220       -0.01418093244198
25
 energy: -4.473439749162 xtb: 6.6.1 (8d0f1dd)
C            3.25214798869751        1.21223158276766        0.06321473776850
N            2.30816202309068        0.12657476520454        0.01089057958200
C            2.60525755794186       -1.23967452379865        0.05686679191831
N            1.41483308308661       -1.93933840195543        0.00435334936723
C            0.39311969070838       -1.06575279645806       -0.01529493966940
C            0.91447997282743        0.22351638050767        0.00491291831108
C            0.10733027048138        1.37523224773815        0.01727720338883
O            0.47387143261196        2.55204499562730        0.05702913599411
N           -1.27827085969384        1.03165212364300       -0.01875487715390
C           -2.22079384435775        2.13497513048746       -0.02518587318184
C           -1.83056356505294       -0.21106986948486       -0.04829296656969
O           -3.03066096303430       -0.39636070009746       -0.07810057419932
N           -0.94835833535725       -1.31034894438132       -0.04258840219122
C           -1.48998987768981       -2.65039759982647       -0.07530327107565
H            3.51986594403394        1.45270278520819        1.09317601791244
H            4.15748571848921        0.90456617387225       -0.47904551854839
H            2.87112147067310        2.17824981276531       -0.30923387758362
H            3.56951631056931       -1.68710896298041        0.05803728657469
H           -1.64428007543130        3.05810510564098        0.00480215103786
H           -2.82504300326620        2.09863833025794       -0.92926048772686
H           -2.87859099916766        2.06333380817025        0.84062354081885
H           -1.19003154917274       -3.21531223730666        0.81066364569543
H           -1.16917662895007       -3.18157574570072       -0.97541452225788
H           -2.57629818773879       -2.55498113572690       -0.08811317480937
H            1.34764362441200       -2.94427372668430       -0.01523726939252
25
 energy: -3.454884974365 xtb: 6.6.1 (8d0f1dd)
C            3.25689388673031        1.22129147458348        0.05569530792724
N            2.30981322881991        0.13263942349272       -0.00094638026573
C            2.60469313495481       -1.23884839737079        0.04020458190065
N            1.41241943654198       -1.93932423447958        0.00472201771324
C            0.39115366142985       -1.06703924074413       -0.01542267448115
C            0.91371135129568        0.22236382491892        0.00095202852902
C            0.10476567871948        1.37117519641841        0.02273531752188
O            0.46726440954928        2.54845888420960        0.07225924436699
N           -1.28169478340999        1.02626222112388       -0.01513268150940
C           -2.22122175994010        2.13143923148743       -0.01812599850034
C           -1.83446543740881       -0.21561528929502       -0.04885917473927
O           -3.03470332677552       -0.40154462456217       -0.08085754698154
N           -0.95108236975058       -1.31301470136723       -0.04385747176830
C           -1.49467816222136       -2.65240456778897       -0.07943952117511
H            3.46658248281825        1.50998166132612        1.08882826661050
H            4.18881085215899        0.87454614923882       -0.42350737505866
H            2.91734748537548        2.18951779924673       -0.36509696135395
H            3.56512073845013       -1.69693247186901        0.06338937132924
H           -1.63953090893417        3.05142366630736        0.01374175388143
H           -2.82503894218237        2.10073386507068       -0.92237517020550
H           -2.87905974527266        2.05977636019508        0.84767547001395
H           -1.19578380647684       -3.21995556991816        0.80523686538184
H           -1.17594529122769       -3.18311130596972       -0.98063189199427
H           -2.58115712599293       -2.55435667654979       -0.09197387908921
H            1.34138676462255       -2.94425261033084       -0.01587776014284
25
 energy: -2.291984532869 xtb: 6.6.1 (8d0f1dd)
C            3.26111844701023        1.23145326366053        0.05014565700776
N            2.31245273143529        0.13813358537781       -0.01336783325238
C            2.60415538140977       -1.23792807509127        0.02098811828249
N            1.41026591508684       -1.94008303734275        0.00529882461629
C            0.38947029759286       -1.06914173712112       -0.01522530259500
C            0.91443450364321        0.21965777985281       -0.00097101326798
C            0.10267877452815        1.36592546578301        0.02939489698195
O            0.46115080534870        2.54360756525855        0.08855160981375
N           -1.28485815767867        1.02036524419052       -0.01093152060768
C           -2.22092317383033        2.12814647245103       -0.01150813166392
C           -1.83815234510760       -0.22071552577635       -0.04923110747660
O           -3.03850760554336       -0.40763435814039       -0.08263863356848
N           -0.95354282169752       -1.31633680455790       -0.04503692116837
C           -1.49991382255011       -2.65477582354091       -0.08321679557104
H            3.41262038937791        1.56703702134482        1.08261451424947
H            4.21540167931832        0.85134596231754       -0.36560026684862
H            2.96463589812440        2.19914422361583       -0.41957354910622
H            3.56031665973393       -1.70703939249669        0.06485313307188
H           -1.63366553098477        3.04461803913408        0.02392479207766
H           -2.82235715887824        2.10457467814018       -0.91720244482623
H           -2.88098298717388        2.05674783275356        0.85271142376449
H           -1.20201893559960       -3.22495427531531        0.80011378356205
H           -1.18448395228760       -3.18537291245845       -0.98569434036713
H           -2.58652247871092       -2.55301297174890       -0.09473507783848
H            1.33553640443424       -2.94497366487078       -0.01548432813995
25
 energy: -1.045612356646 xtb: 6.6.1 (8d0f1dd)
C            3.26355430950454        1.24213569943164        0.04258955907175
N            2.31590302022872        0.14220916271561       -0.02723085493962
C            2.60421820666772       -1.23801680427833        0.00260023915802
N            1.40852557145551       -1.94142831456930        0.00699893202152
C            0.38818066278613       -1.07121721421095       -0.01443995301476
C            0.91632803631694        0.21690538161770       -0.00290284791447
C            0.10149698122682        1.36059968775426        0.03643843633061
O            0.45687342435576        2.53816963463882        0.10379953983306
N           -1.28730965800212        1.01502658553780       -0.00617905060985
C           -2.22055465487779        2.12495888916700       -0.00441365468480
C           -1.84109178937109       -0.22530602367311       -0.04968423354925
O           -3.04149400824536       -0.41317814922922       -0.08591919322986
N           -0.95558641195422       -1.31945214976573       -0.04607618240913
C           -1.50472099464297       -2.65701263006387       -0.08686508681881
H            3.35841515307598        1.62587176497038        1.06639812470512
H            4.23696815050716        0.83738430002966       -0.30258047334193
H            3.01113665886691        2.20545796181378       -0.47500149743889
H            3.55536913046293       -1.71793821051458        0.06637054599720
H           -1.62897203803475        3.03867028035069        0.03382568597098
H           -2.82024682125577        2.10720031997591       -0.91126860632862
H           -2.88177339771463        2.05314980617956        0.85896565105653
H           -1.20805168217397       -3.22978940019586        0.79515488602709
H           -1.19167020867140       -3.18720109365115       -0.99035072247172
H           -2.59152619330198       -2.55238558432606       -0.09790003146680
H            1.32862009431301       -2.94630072914491       -0.01384644530830
25
 energy: 0.254721310764 xtb: 6.6.1 (8d0f1dd)
C            3.26444270290075        1.25280126418189        0.03294085872876
N            2.31949236929521        0.14502981968100       -0.04214685541196
C            2.60509087959160       -1.23821949298730       -0.01524576121351
N            1.40883420176660       -1.94309856573905        0.00833517537096
C            0.38775976919511       -1.07392868207886       -0.01394084332597
C            0.91852881771154        0.21384466812021       -0.00542334769531
C            0.10072223600552        1.35511725375537        0.04380483737941
O            0.45360176905168        2.53223449018198        0.11915516289855
N           -1.28930332722592        1.00987589458789       -0.00071872379210
C           -2.21982108562413        2.12192697565311        0.00281421622305
C           -1.84289924501045       -0.22990130547672       -0.05046423995087
O           -3.04304338851125       -0.41859725606994       -0.09063015121511
N           -0.95687507441233       -1.32299964124729       -0.04676327798758
C           -1.50954209299764       -2.65937433040909       -0.08985676364145
H            3.30361952794335        1.68129499386472        1.04185530093665
H            4.25255158914105        0.82947777254761       -0.23539026869023
H            3.05789827060499        2.20985158187326       -0.52993386888406
H            3.55072115888354       -1.72833999889178        0.06839949202133
H           -1.62406121303420        3.03294069122198        0.04376239605279
H           -2.81684383368347        2.10981578993271       -0.90581696867889
H           -2.88242252633639        2.04985231114531        0.86524529025960
H           -1.21441720759034       -3.23442336929239        0.79113383085491
H           -1.19873050589997       -3.18937127682147       -0.99409945312428
H           -2.59653796938194       -2.55170531662760       -0.10077206309334
H            1.32465089229659       -2.94822594152845       -0.01101679175128
25
 energy: 1.444514025573 xtb: 6.6.1 (8d0f1dd)
C            3.26192538271036        1.26286334871603        0.02089264681617
N            2.32167323331856        0.14696150062756       -0.05833291874449
C            2.60624409227745       -1.23682090159653       -0.03186214997553
N            1.41149217433024       -1.94404568387075        0.00591226414065
C            0.38791274160861       -1.07715458207227       -0.01639932358771
C            0.91946749121676        0.21083447642916       -0.01056934286064
C            0.09946894534551        1.34968372839573        0.05148061462711
O            0.45054707373710        2.52601561731539        0.13443598212173
N           -1.29154877997237        1.00491444628160        0.00539071758534
C           -2.21939656975063        2.11892556566459        0.01017151990974
C           -1.84399393289090       -0.23462328193365       -0.05159841209888
O           -3.04374133424490       -0.42408619144779       -0.09891921259549
N           -0.95768396171642       -1.32710476125433       -0.04670707493561
C           -1.51447012815963       -2.66190216981543       -0.09206257471790
H            3.24816031925441        1.72840361923484        1.00987761115679
H            4.25624820308207        0.83023639027028       -0.17111876106433
H            3.10507554954005        2.21215179933126       -0.58141256894563
H            3.54563366431836       -1.73665079881150        0.07226938982951
H           -1.61924364958431        3.02715123200486        0.05245603672427
H           -2.81397468463964        2.11152483864842       -0.90012089759221
H           -2.88269971895948        2.04722305267315        0.87233894495549
H           -1.22211950202833       -3.23900562754677        0.78848311390685
H           -1.20526902232420       -3.19188005265629       -0.99668530410760
H           -2.60151383129940       -2.55055336040764       -0.10370096014331
H            1.32454658874793       -2.94999035069929       -0.00648856999139
25
 energy: 2.910434121933 xtb: 6.6.1 (8d0f1dd)
C            3.25952909358937        1.27301458838752        0.00741111055770
N            2.32363610991726        0.14886045522799       -0.07537074140446
C            2.60673720747171       -1.23511234883917       -0.04858298748361
N            1.41367476689304       -1.94486372204310        0.00060257552584
C            0.38806519917026       -1.07975268940478       -0.01963315040435
C            0.92043020746352        0.20815734796368       -0.01812700226193
C            0.09857480227214        1.34432871321654        0.05890743198184
O            0.44873694319391        2.51944987220927        0.14952330092249
N           -1.29340690673398        0.99995718828311        0.01223670598663
C           -2.21837780069436        2.11602864358632        0.01740804117528
C           -1.84456935794724       -0.23918406058184       -0.05263524135945
O           -3.04400197542803       -0.42848116789458       -0.10645163498953
N           -0.95805163980021       -1.33130154308118       -0.04654485618451
C           -1.51966474919331       -2.66432410867487       -0.09413767383314
H            3.18998934344902        1.77347749540937        0.97155667998127
H            4.25576639423732        0.83221590499822       -0.10513494059707
H            3.15647135204661        2.21520400359140       -0.62995312694322
H            3.53982343927200       -1.74382152892015        0.06989557014635
H           -1.61412966166680        3.02154784444771        0.06227458036250
H           -2.80892426431836        2.11391968361552       -0.89570553166388
H           -2.88375753868761        2.04529505779693        0.87842899142936
H           -1.22975353711214       -3.24351049818665        0.78569777593818
H           -1.21286808112888       -3.19447875852073       -0.99932122368114
H           -2.60680682244251       -2.54885120050649       -0.10549697774029
H            1.33004816019902       -2.95181017079665       -0.00104556693738
25
 energy: 4.310913667383 xtb: 6.6.1 (8d0f1dd)
C            3.26193769558150        1.28126099009417       -0.00140343791237
N            2.32687842857385        0.15054645337595       -0.09353239995252
C            2.60841008924871       -1.23422416663547       -0.06696269106507
N            1.41707218672561       -1.94568307397927       -0.00638966640639
C            0.39020375565761       -1.08149735925997       -0.02231040106442
C            0.92280382948516        0.20667293964970       -0.02538698219930
C            0.09968171863100        1.34120147236995        0.06741598091299
O            0.45002660934211        2.51501363719601        0.16571593851250
N           -1.29261097534723        0.99710311986747        0.02020953610115
C           -2.21597462044801        2.11431764099099        0.02468734693269
C           -1.84212878445666       -0.24226557009209       -0.05086992330387
O           -3.04086489136337       -0.43119855547508       -0.11334314755150
N           -0.95611570035052       -1.33490954581041       -0.04392973122170
C           -1.52437590436501       -2.66613149543915       -0.09498080927511
H            3.12654780425870        1.81565732155768        0.93755346419187
H            4.25953973321340        0.82908313839932       -0.03311353498151
H            3.21489710950295        2.21538331578346       -0.67198877499661
H            3.53887656544397       -1.74049763843010        0.06681019516843
H           -1.60822326804461        3.01700716702055        0.07171631071662
H           -2.80364999677358        2.11572129264940       -0.89064091257540
H           -2.88148290954480        2.04439441262260        0.88573665441167
H           -1.23740000590159       -3.24790965971505        0.78378204750644
H           -1.22052021997927       -3.19656870846329       -1.00097129932198
H           -2.61175508685960       -2.54633629489405       -0.10637838844400
H            1.33675204701121       -2.95338437294630       -0.00258805159465
25
 energy: 5.684764668375 xtb: 6.6.1 (8d0f1dd)
C            3.26658995356177        1.28790401225166       -0.00595254190218
N            2.33221481423954        0.15017771565369       -0.11017405469283
C            2.61283152495321       -1.23630747438150       -0.08570226674716
N            1.42180212182234       -1.94686969545759       -0.01107688226422
C            0.39418238322902       -1.08342942606076       -0.02479892380421
C            0.92768888101591        0.20489369270735       -0.03069535449213
C            0.10406600028949        1.33908100277488        0.07578502858522
O            0.45668780125924        2.51112148542772        0.18243322930364
N           -1.28787765812538        0.99637234071956        0.02818205815127
C           -2.21124862951377        2.11343007788330        0.03157401516553
C           -1.83723308993916       -0.24264661414686       -0.04779955471895
O           -3.03611693871896       -0.42842275020848       -0.11222382456237
N           -0.95304661466084       -1.33755138048001       -0.04112228225356
C           -1.52819697052062       -2.66738262034201       -0.09509249586565
H            3.05957314709369        1.85624675760543        0.90465910064015
H            4.26144487748844        0.82215582170756        0.04344521774344
H            3.27910322548860        2.21080341916409       -0.70687572105483
H            3.54143479599283       -1.73967186296931        0.06954955084949
H           -1.60196367903429        3.01388129815630        0.08205743842998
H           -2.79866449223555        2.11739199913404       -0.88385272975780
H           -2.87825353372372        2.04232026156858        0.89036863636787
H           -1.24359122852671       -3.25145249598843        0.78251745120181
H           -1.22842148412359       -3.19848120713611       -1.00218566862173
H           -2.61520504582269       -2.54357585976439       -0.10351109452044
H            1.34333970843764       -2.95495919421079       -0.00580014374723
25
 energy: 6.681847454192 xtb: 6.6.1 (8d0f1dd)
C            3.27428095164025        1.28996393194468       -0.00859810884600
N            2.33913940777151        0.14740347807678       -0.12380792277347
C            2.61947846338136       -1.23939325331480       -0.10402542470786
N            1.42723910730803       -1.94657610514780       -0.01559763278330
C            0.39882301398072       -1.08372024064442       -0.02684889050917
C            0.93438690600195        0.20412641095444       -0.03674994886248
C            0.11181731184805        1.33914635631436        0.07636188757561
O            0.46445782822321        2.50989238409057        0.19649232119469
N           -1.28040098470975        0.99653928329928        0.03236730379165
C           -2.20590311144120        2.11237617566997        0.03689922900179
C           -1.83153020842905       -0.24144092629013       -0.04561303776415
O           -3.03092903115116       -0.42254194511215       -0.11172807588209
N           -0.94923834919985       -1.33879645258434       -0.03727316649068
C           -1.53058259988821       -2.66782105396517       -0.09298992908196
H            2.99533486688310        1.88277409496181        0.87025932690203
H            4.26335067787042        0.81714263663230        0.11461114606073
H            3.34764161787024        2.19950161804508       -0.73172624233076
H            3.54736509478296       -1.73835969013053        0.07947299746113
H           -1.59696778941109        3.01175157208513        0.09080590633430
H           -2.79489629480219        2.11763835991880       -0.87799494358405
H           -2.87329098936125        2.03935025567061        0.89299230012506
H           -1.25042604999353       -3.25514332174080        0.78300609930605
H           -1.23548724883903       -3.19929862324563       -1.00172232393582
H           -2.61665159474969       -2.54015311569335       -0.09815337069535
H            1.35108125480450       -2.95417581249896       -0.00921215259946
25
 energy: 7.517105083114 xtb: 6.6.1 (8d0f1dd)
C            3.27357691217114        1.29057129698037       -0.02237556066694
N            2.34323745820829        0.14019474604897       -0.13733088636604
C            2.62397587263334       -1.24610487830272       -0.12165985796199
N            1.42869172084995       -1.94968158010396       -0.02089419439707
C            0.40217022845675       -1.08463673156439       -0.02933212481677
C            0.93938037297952        0.20202729724057       -0.04561457482545
C            0.11840955925892        1.33928874356380        0.07119376930364
O            0.47403430808870        2.50784133857547        0.20711523843961
N           -1.27267187341244        0.99708963520697        0.03233587911221
C           -2.20015565778801        2.11150514713571        0.03946254770456
C           -1.82648914244472       -0.23983082022636       -0.04435297395978
O           -3.02652119001519       -0.41627311407857       -0.11049692514086
N           -0.94600932891620       -1.33922907192684       -0.03363661040500
C           -1.53109412620624       -2.66747140426478       -0.08921582554289
H            2.93660444745731        1.89594303653937        0.82222564750794
H            4.24940645666683        0.82240800166436        0.17695542302921
H            3.40614292778519        2.18570885335267       -0.76504696093941
H            3.54853720155340       -1.74120675096611        0.09415795221100
H           -1.59205931419498        3.01010119278815        0.10032509565975
H           -2.78825338634944        2.11605455887453       -0.87685352350627
H           -2.86735508974639        2.03587214623409        0.89468217400863
H           -1.25605034674498       -3.25903589552584        0.78440824983864
H           -1.24402385148487       -3.19964963620868       -1.00026649584010
H           -2.61588852795436       -2.53712536479237       -0.09205416203932
H            1.34908400378539       -2.95698508990412       -0.01338474740185
25