25
 energy: 116.770455935646 xtb: 6.6.1 (8d0f1dd)
C            3.29723486021350        1.16252373223828        0.09980887373091
N            2.33454076293305        0.08137868980383        0.04988955399758
C            2.70487248305818       -1.19732962464120        0.04843481034780
N            1.60652346022778       -1.98052536119591        0.02780964417284
C            0.43692560100069       -1.17106227588181        0.00586108026241
C            0.94697091841733        0.15941231755452        0.02365670003444
C            0.12965179585524        1.37373404452408       -0.02701030565018
O            0.68843872597461        2.47888157364237       -0.03634214748104
N           -1.28238747175181        1.15724802544485        0.00594363867544
C           -2.03104968853619        2.38839515808803        0.03010305809259
C           -3.56078874075959        0.33300333570012       -0.45859613144501
O           -4.18214991703056       -0.61297056819068       -0.34775673421108
N           -0.77652056812448       -1.52961451208782       -0.02005399949151
C           -1.26463464792773       -2.85858292625361       -0.02972208877090
H            3.81010167842663        1.16245083950922        1.06478427779904
H            4.05731519426117        1.04945684582777       -0.68343423184395
H            2.77243514541725        2.11121064619160       -0.02420472664758
H            3.72267884086759       -1.53827743340736        0.07955699140165
H           -1.38933500234348        3.23563279478105       -0.19073146341554
H           -2.85179404699356        2.42674806892436       -0.69061999570229
H           -2.42606458144193        2.51738335825950        1.04254308182523
H           -0.91207849332552       -3.39302773989763        0.85537667923699
H           -0.95209219980379       -3.37888753569921       -0.94015539676796
H           -2.34860705429834       -2.81358872526151       -0.00544553598941
H            1.63803207404520       -2.98266979453637        0.02517788372342
