25
 energy: 0.000000000000 xtb: 6.6.1 (8d0f1dd)
C            3.23720132972391        1.16630909158653        0.08434468864950
N            2.29877796055224        0.07527476373246        0.03981602671198
C            2.58028186251803       -1.21425391179017        0.03006175752192
N            1.43813944744728       -1.93419254010258        0.00098261751768
C            0.39035684826767       -1.05887462812143       -0.00790371763344
C            0.93510047688824        0.21347817468824        0.01709077332874
C            0.09450143016486        1.40504290868848       -0.00410946993748
O            0.49712746915594        2.54126690785742       -0.00342325656480
N           -1.25076628431515        1.06271869620815       -0.03085477937476
C           -2.21907191394203        2.15522079838987       -0.05001256521996
C           -1.81739470187490       -0.20012724136556       -0.04692818139228
O           -2.99983858926755       -0.37846413507442       -0.07008877579474
N           -0.92618577614240       -1.30210203518959       -0.03682761236648
C           -1.46982251276835       -2.64643077634382       -0.06029819901142
H            3.71247229913541        1.21471443890471        1.06488839270555
H            4.00791460421487        1.03430799217987       -0.67357688121503
H            2.69909982127087        2.09770098766290       -0.09130154035862
H            3.56654087521359       -1.63682977417947        0.04233139674524
H           -1.67107945562430        3.09322822573871       -0.02552706696334
H           -2.82428927394145        2.09428605349656       -0.95318074103337
H           -2.87644002486466        2.07745706351925        0.81450059976605
H           -1.17061985538665       -3.19584861009707        0.83242224714061
H           -1.14560246782873       -3.17511580834413       -0.95688266944647
H           -2.55549768731684       -2.55659960601237       -0.07459039105944
H            1.38130842369251       -2.94313824728853       -0.01389874052104
25
 energy: -6.164787429600 xtb: 6.6.1 (8d0f1dd)
C            3.24083429325643        1.17404583903541        0.08240095916057
N            2.30325731033832        0.10230902844292        0.03386116193748
C            2.60231500469780       -1.24020216780618        0.03089126722998
N            1.42226609996128       -1.94171367467528        0.00172031996845
C            0.39973535248847       -1.06436489462384       -0.00513121657425
C            0.91620163437102        0.22395788780968        0.01923965509944
C            0.10763739089824        1.38247454877974       -0.00188467736022
O            0.48672394945406        2.55770613982624        0.00540240894203
N           -1.28177800925315        1.04782988344728       -0.04791267666749
C           -2.22715391070446        2.16017569995773       -0.06481993365319
C           -1.82227029242525       -0.20251376043990       -0.04548445972188
O           -3.01994985171731       -0.39717964670072       -0.06192767763038
N           -0.93852994109902       -1.30461589117043       -0.03092233313434
C           -1.46634872818836       -2.64859255842627       -0.05496524319478
H            3.72001895901742        1.22149243366155        1.06441750437234
H            4.01067587043400        1.03717432688262       -0.67954550499895
H            2.69700026436722        2.09984082859541       -0.09622433279772
H            3.57963836456808       -1.65155215029708        0.03916244590977
H           -1.64962460270254        3.07670092883962        0.03683190049280
H           -2.81339009310610        2.20769871400758       -0.98418852775355
H           -2.91765498709782        2.05015898496950        0.77021176719978
H           -1.16041417444493       -3.19963840509509        0.83746667049168
H           -1.13552678220471       -3.18057280467821       -0.95061369435678
H           -2.55194070163475       -2.56599288035551       -0.06959015164493
H            1.37096005775332       -2.94671441231052       -0.01328547398886
25
 energy: -5.471834020771 xtb: 6.6.1 (8d0f1dd)
C            3.24196000874049        1.17451352728878        0.08008520900603
N            2.30364652565552        0.10209759445090        0.03299950574123
C            2.60501099186894       -1.24238611812119        0.02753990684254
N            1.42417117557098       -1.94524827974904        0.00046415894496
C            0.40072640792722       -1.06814828416911       -0.00201952052620
C            0.91332304827503        0.22184533260017        0.02263812017837
C            0.09994813595562        1.37793352398597       -0.00009619214532
O            0.47825259441659        2.55374941195558        0.01552767215191
N           -1.29595017617393        1.04606010676042       -0.06557788708455
C           -2.23506725693703        2.17396777399637       -0.08029290757243
C           -1.82900102351760       -0.20875247898839       -0.04398333810243
O           -3.02557081246661       -0.41102496020906       -0.05245849311497
N           -0.93868913130723       -1.30840567925262       -0.02337764596626
C           -1.46154002167163       -2.65476698568823       -0.04718408482686
H            3.72511380762726        1.22294603689426        1.06078736468914
H            4.00967706015277        1.03848620750729       -0.68454325064707
H            2.69553931210471        2.09892686730255       -0.09763109392358
H            3.58310229297210       -1.65604842232411        0.03094854829982
H           -1.64171443988645        3.06920172195541        0.09921157298171
H           -2.79477365217257        2.31788213223267       -1.01170481029922
H           -2.96107230327032        2.02591023218795        0.71920820238356
H           -1.15346822704341       -3.20654742997638        0.84426287140759
H           -1.12880306272622       -3.18614538411768       -0.94271961118400
H           -2.54721927936712       -2.57577619994701       -0.06175667483499
H            1.37333728947290       -2.95119211301208       -0.01790069521589
25
 energy: -4.232804627624 xtb: 6.6.1 (8d0f1dd)
C            3.24215404777420        1.17505303603004        0.07577395669443
N            2.30327936598462        0.10250917015395        0.03072466325119
C            2.60757893956546       -1.24424444474692        0.02503693261431
N            1.42591992040553       -1.94880486385744       -0.00016867585785
C            0.40153913071536       -1.07228080404254        0.00071439915842
C            0.90998310854975        0.21922492741462        0.02491500693352
C            0.09244061682636        1.37230929610375       -0.00005577509858
O            0.46980559816851        2.54843764645885        0.02560063202097
N           -1.30913576060219        1.04492612638336       -0.08516946067023
C           -2.24088391272682        2.19082370966930       -0.09387221854400
C           -1.83498779655205       -0.21424464461219       -0.04171071535593
O           -3.03028795116603       -0.42450844107417       -0.04030928516903
N           -0.93903742527068       -1.31194952354302       -0.01609870039457
C           -1.45691533059370       -2.66068451614915       -0.04038614119862
H            3.72764393031721        1.22479413438818        1.05589500269370
H            4.00900788899289        1.03909558844799       -0.68995543093006
H            2.69384685472729        2.09814729345450       -0.10214148134388
H            3.58646950559922       -1.65929435121981        0.02492569720937
H           -1.63463390436743        3.06036108333482        0.16194285419421
H           -2.77180495177713        2.42918296586191       -1.03124940910285
H           -3.00005296482901        2.00023756641758        0.66689077326573
H           -1.14701611928578       -3.21221390450017        0.85078376770514
H           -1.12121143252333       -3.19197618201790       -0.93528608936987
H           -2.54269691721379       -2.58587727285846       -0.05611510295161
H            1.37715809919993       -2.95534721012240       -0.02131185661481
25
 energy: -2.409501073018 xtb: 6.6.1 (8d0f1dd)
C            3.24251309322743        1.17464926803791        0.07217280047372
N            2.30243649823143        0.10263781420937        0.02745962832123
C            2.60973847254568       -1.24610944797438        0.02125679350190
N            1.42740770235949       -1.95242123120902       -0.00158312559182
C            0.40221680001186       -1.07643070351492        0.00330361818016
C            0.90645644289243        0.21642401237256        0.02744869011104
C            0.08516412601563        1.36732419214115        0.00016333592400
O            0.46315786021621        2.54319827187447        0.03402871374854
N           -1.32215251042182        1.04708566342678       -0.10302992329824
C           -2.24983006308419        2.21066052133662       -0.10746426724183
C           -1.84034393349731       -0.21757841066779       -0.03758414004389
O           -3.03389637994005       -0.43711496192170       -0.02914874968285
N           -0.93945935879594       -1.31458589235071       -0.00863022978113
C           -1.45194938580674       -2.66615173498498       -0.03334176049065
H            3.73053301888628        1.22530542865192        1.05158172413511
H            4.00855153027782        1.03884028076659       -0.69450620643656
H            2.69374486653883        2.09714574750576       -0.10522252090992
H            3.58942215544252       -1.66171551555382        0.01646687522236
H           -1.63766186770844        3.05199862115825        0.22405977050133
H           -2.74595155855367        2.53922113847627       -1.04844152047369
H           -3.03814887320619        1.97785114979565        0.61390756538292
H           -1.13899182630817       -3.21682459950620        0.85756935378138
H           -1.11359987763696       -3.19753482632376       -0.92774850230743
H           -2.53788743813058       -2.59698743502401       -0.04900724576953
H            1.38177217424884       -2.95952610907961       -0.02540599128615
25
 energy: -0.313726441372 xtb: 6.6.1 (8d0f1dd)
C            3.24257107149214        1.17222966464132        0.06806073939429
N            2.30174351900378        0.10041765346538        0.02190884358149
C            2.61216190411711       -1.24932513505936        0.01751189488203
N            1.42930549493200       -1.95663388817315       -0.00368919631583
C            0.40310749767501       -1.08129043438332        0.00626669560859
C            0.90379046236118        0.21247441653781        0.03021242950784
C            0.07967892322527        1.36183426865546        0.00104762882246
O            0.45736603479441        2.53762310602793        0.04404588875818
N           -1.33220343745748        1.04651509872561       -0.11981160836753
C           -2.25688873028781        2.21605981063906       -0.11601822548411
C           -1.84454153325448       -0.22180692223410       -0.03194493016047
O           -3.03656354652530       -0.44904946206474       -0.01662153885790
N           -0.93948040223544       -1.31786123322220       -0.00050196837601
C           -1.44716523227681       -2.67176804659121       -0.02628791819504
H            3.73221922740775        1.22469905950105        1.04708177509988
H            4.00834350876431        1.03803451308093       -0.69922176561376
H            2.69383407333821        2.09440348228815       -0.10910694712224
H            3.59273747178655       -1.66462868479558        0.00793001827686
H           -1.65097353017619        3.03652945588457        0.28771823649800
H           -2.71791983120883        2.64133872074526       -1.05588089648212
H           -3.07456701545760        1.95260051382106        0.56028625814359
H           -1.13172501595329       -3.22191884908192        0.86425596177179
H           -1.10593981541522       -3.20296661600096       -0.92016949876280
H           -2.53322486317415       -2.60773277423573       -0.04256040670864
H            1.38655305639264       -2.96392501481607       -0.02979086300015
25
 energy: 2.407525413647 xtb: 6.6.1 (8d0f1dd)
C            3.24515254879001        1.16666666120142        0.06442921041962
N            2.30272682582843        0.09498480277044        0.02004244152007
C            2.61553368794876       -1.25478653868866        0.01513219553865
N            1.43210054415001       -1.96196203713599       -0.00345614558506
C            0.40504697307826       -1.08673554228284        0.00907233174604
C            0.90317033217175        0.20755280318649        0.03268676688107
C            0.07553470678874        1.35598589634717        0.00057440998855
O            0.45291567592074        2.53151508380727        0.05227424381038
N           -1.34095934619682        1.04672220150515       -0.13608580596196
C           -2.26452426121006        2.21720210272243       -0.12167756022751
C           -1.84702395551734       -0.22508262517824       -0.02610070053504
O           -3.03741106531354       -0.46052036533458       -0.00557694880328
N           -0.93841974472124       -1.32067605154543        0.00639937224252
C           -1.44201468907260       -2.67679170678954       -0.02146232734523
H            3.73990409135282        1.22036467461837        1.04101496113731
H            4.00863933401758        1.03461070028536       -0.70581867329046
H            2.69774766463171        2.08979195847121       -0.10957945699819
H            3.59710535803327       -1.66898984592222        0.00197654017048
H           -1.67630960675077        3.02084695725940        0.34307073073039
H           -2.69510593665495        2.73879963048591       -1.05715547411769
H           -3.10941043414220        1.92967988511046        0.51081097230177
H           -1.12453205578881       -3.22698534528720        0.86847528749590
H           -1.09887661657351       -3.20837242194052       -0.91492615257926
H           -2.52811347108233       -2.61722101432568       -0.03803251032328
H            1.39268932376530       -2.96941978560665       -0.02797742627770
25
 energy: 5.655086437701 xtb: 6.6.1 (8d0f1dd)
C            3.24452814637569        1.16280319421347        0.06284523143945
N            2.30310899805998        0.08978077048565        0.01819998407056
C            2.61807040509928       -1.25999871921557        0.00848291774914
N            1.43435590048954       -1.96698384005387       -0.00961297627334
C            0.40657799611119       -1.09245104411905        0.01155146628639
C            0.90285682614393        0.20191736607954        0.03506801663664
C            0.07265943872028        1.34982938816112        0.00420859825434
O            0.44904477065433        2.52511987839450        0.06681514664157
N           -1.34470474259088        1.04495818054862       -0.15089031972271
C           -2.26829274809766        2.21494091427416       -0.13200569942132
C           -1.84810477370192       -0.22946159765671       -0.02029830805027
O           -3.03734967665129       -0.47053916779969        0.00905227279138
N           -0.93759558757011       -1.32440022223276        0.01554346497825
C           -1.43699210516456       -2.68252486656952       -0.01244851812668
H            3.74062855254898        1.21875719422361        1.03860202868491
H            4.00743647073928        1.03308507158854       -0.70873888833410
H            2.69662822537426        2.08572700006916       -0.11053948724586
H            3.60014617942881       -1.67293023116714       -0.01127722652669
H           -1.70806209429340        2.99737987437695        0.39159787453281
H           -2.66389256317279        2.83247844302144       -1.06063587750324
H           -3.14367225758595        1.90892658512988        0.44766590806813
H           -1.11726463374004       -3.23196898892406        0.87738098718250
H           -1.09016189416764       -3.21336310977711       -0.90521442395509
H           -2.52323234377114       -2.62817577181759       -0.03028634678172
H            1.39782384524905       -2.97416089298467       -0.03675028566614
25
 energy: 10.183099600329 xtb: 6.6.1 (8d0f1dd)
C            3.24498189970967        1.15882815848496        0.05913026423476
N            2.30476408009773        0.08465372424670        0.01585918709702
C            2.62066561233437       -1.26526613520218        0.00581360825541
N            1.43708525016080       -1.97146444652727       -0.01057362764184
C            0.40892608849357       -1.09762595688935        0.01431092137369
C            0.90529630087584        0.19643935605257        0.03541039534639
C            0.07339581136050        1.34409254492857        0.00705225801990
O            0.44664736504799        2.51971756633238        0.07723693038502
N           -1.34097118071372        1.03984519209007       -0.14840766070493
C           -2.26679242532109        2.21187196241392       -0.13484328442258
C           -1.84627163764033       -0.23634732071222       -0.01681671245273
O           -3.03527147846365       -0.47985308080543        0.01891367442514
N           -0.93552897499539       -1.32931854852148        0.02271365481351
C           -1.43153172813465       -2.68869641413730       -0.00562663131402
H            3.74069514036045        1.21805379108467        1.03500429790508
H            4.00857570625068        1.02709446432002       -0.71148363956145
H            2.69741558422694        2.08142887784581       -0.11912174075934
H            3.60306670452889       -1.67662141762447       -0.01742307212332
H           -1.73327470368023        2.97038403828864        0.44321202972869
H           -2.64490100724761        2.92987364048279       -1.04998589926964
H           -3.16956835310903        1.89029959739339        0.38921288222629
H           -1.11055894737118       -3.23722652041480        0.88441925030154
H           -1.08062734653287       -3.21848451407137       -0.89753364352208
H           -2.51797587287887       -2.63886956340636       -0.02554639658853
H            1.40348003653076       -2.97826437749351       -0.03622898010707
25
 energy: 15.845213393536 xtb: 6.6.1 (8d0f1dd)
C            3.24550601731085        1.15502074245740        0.05588432010460
N            2.30682032792930        0.07967522750345        0.01233399652370
C            2.62336066093203       -1.26976900040872        0.00064985602686
N            1.44099095002375       -1.97531657272826       -0.01114597814331
C            0.41166791300752       -1.10277225037858        0.01652539421844
C            0.90813022075780        0.19154766226449        0.03435268559852
C            0.07701464643325        1.34007456310714        0.01311029972517
O            0.44608851644990        2.51580768664435        0.08744584924364
N           -1.33730994488783        1.03544324370943       -0.14100543169144
C           -2.26573176252320        2.20892874301809       -0.13679313736233
C           -1.84415816442366       -0.24269312423457       -0.00996385590910
O           -3.03275791456754       -0.48898423176752        0.03084967601566
N           -0.93286033817645       -1.33426136882901        0.03063172418119
C           -1.42573738201206       -2.69501197590154        0.00103974023000
H            3.74120505242758        1.21401182318753        1.03182025307770
H            4.00922234216907        1.02266072007773       -0.71420121834724
H            2.69800775507279        2.07778023161493       -0.12338419143157
H            3.60647580105678       -1.67873615050229       -0.02731575848182
H           -1.76391867973511        2.94417301079399        0.48971047331975
H           -2.62577620628778        3.02492672121671       -1.04606182562862
H           -3.19434641826249        1.87669473930992        0.32847091117528
H           -1.10251903983648       -3.24287604861648        0.89075472804639
H           -1.07236336237903       -3.22418033013359       -0.89046253489369
H           -2.51242112839773       -2.64973949350435       -0.01951959350775
H            1.41078613233705       -2.98188148393078       -0.03440219202585
25
 energy: 23.420453039802 xtb: 6.6.1 (8d0f1dd)
C            3.24526255185759        1.15275225886685        0.05287401005637
N            2.30743512362153        0.07736106371629        0.00885016444673
C            2.62414666897829       -1.26974223780506        0.00176506598376
N            1.44492733951882       -1.97760602454516       -0.01091376110929
C            0.41397076868661       -1.10755941069727        0.01706564667558
C            0.90948255390412        0.18738015866380        0.03244778471039
C            0.07668355709727        1.33535950229461        0.01912941842770
O            0.44493144746165        2.51084844797136        0.09452451833431
N           -1.33454943236193        1.02949610664197       -0.13023254407230
C           -2.26291358265474        2.19973744957809       -0.13457354931179
C           -1.84191487566328       -0.25113206565388       -0.00156668633028
O           -3.03019693158572       -0.49895000874907        0.04556079289364
N           -0.93011269910420       -1.33989764606663        0.03772610250099
C           -1.42011129879473       -2.70165723835829        0.00722672574914
H            3.74115117313379        1.21010206172857        1.02843528122320
H            4.00855408747111        1.02027692063078       -0.71735212263152
H            2.69772020038266        2.07579036583268       -0.12509339114521
H            3.60769871393288       -1.67844274639319       -0.04002163286413
H           -1.79887797195025        2.91603339659674        0.53081333925893
H           -2.61021079512113        3.12563619167551       -1.04922532157058
H           -3.21793277759948        1.86147635328838        0.26180544681706
H           -1.09374923977239       -3.24914619755464        0.89603656627645
H           -1.06500135458178       -3.22897442955531       -0.88470298443454
H           -2.50707660002669       -2.66052152022175       -0.01294957722745
H            1.41855025524561       -2.98400681510885       -0.03102738372289
25
 energy: 33.978082715350 xtb: 6.6.1 (8d0f1dd)
C            3.24474923789408        1.15109220755496        0.04913340529647
N            2.30841097647356        0.07525543881862        0.00649656247846
C            2.62519129242859       -1.26895826936667        0.00591851973868
N            1.44928565060838       -1.97927042706953       -0.00981920030118
C            0.41661532437112       -1.11213189894045        0.01681249290230
C            0.91136603689238        0.18354456328607        0.03127742822156
C            0.07837696523742        1.33089028399032        0.02741082345074
O            0.44444866599882        2.50618652310465        0.10331420054570
N           -1.33012576037878        1.02209068782636       -0.11635235540332
C           -2.25555001814570        2.18147700522600       -0.12491602459384
C           -1.83862746650715       -0.26087489465019        0.00631726918512
O           -3.02630322896508       -0.50858431150094        0.06026734975185
N           -0.92637443411120       -1.34646320119516        0.04115139535225
C           -1.41399861292706       -2.70884545314072        0.01316877931204
H            3.73954225868191        1.20943843867584        1.02463407304259
H            4.00806009481088        1.01717222393752       -0.72062962650851
H            2.69650575995682        2.07363780762639       -0.12951172271533
H            3.60818170717093       -1.67736443083667       -0.05156691031242
H           -1.83580855560146        2.88532017546105        0.57296070972640
H           -2.60327548183446        3.24549460173552       -1.05532252452924
H           -3.23412835015653        1.83972008286239        0.19540005594112
H           -1.08541461615492       -3.25611659403538        0.90141666622406
H           -1.05652867884618       -3.23390855608263       -0.87883762471051
H           -2.50128484388189       -2.67160500923459       -0.00731559983558
H            1.42580992600142       -2.98548018403097       -0.02763154762810
25
 energy: 52.114131178175 xtb: 6.6.1 (8d0f1dd)
C            3.24458487684706        1.14909046610570        0.04534137358466
N            2.31023212139679        0.07125286574619        0.00462905416185
C            2.62457391898649       -1.26697915493643        0.00736430973501
N            1.45548837598778       -1.98097960401954       -0.00769219997699
C            0.41917154322709       -1.11796083763611        0.01584257085719
C            0.91396292005046        0.17876535712599        0.03065193590563
C            0.08206562421839        1.32505088994479        0.03877506550434
O            0.44647135788150        2.49905066776960        0.10974298100519
N           -1.32277918975581        1.01042801393324       -0.08630505490975
C           -2.23851468826932        2.13631322933276       -0.09336805853118
C           -1.83336368136298       -0.27640435840980        0.01684647156420
O           -3.02051625157482       -0.51924717432032        0.07632514825683
N           -0.92158192861313       -1.35543705295272        0.04171558478772
C           -1.40713683170283       -2.71763882157152        0.01824892585836
H            3.73879368519837        1.20802894359165        1.02035419349491
H            4.00687412782884        1.01449606163147       -0.72477605279272
H            2.69555218678927        2.07153064515552       -0.13244667004047
H            3.60818712900041       -1.67230098412730       -0.06185953192943
H           -1.87322584691844        2.86165937674755        0.60273157549403
H           -2.62563571203584        3.42180812018383       -1.08677934903844
H           -3.24608852813888        1.81630755781606        0.12439347067526
H           -1.07586798994922       -3.26354527696347        0.90631634078395
H           -1.04728504932235       -3.23929917948913       -0.87411270463364
H           -2.49490082187710       -2.68334859470319       -0.00217516195601
H            1.43379665896991       -2.98725013518932       -0.02204774387231
25
 energy: 70.500502910130 xtb: 6.6.1 (8d0f1dd)
C            3.24328008401431        1.14721712315490        0.04025978424721
N            2.31082661999880        0.06466053801343        0.00658012506546
C            2.62257239916094       -1.26122770594284        0.00359552800359
N            1.46430466452722       -1.98328916740935       -0.00577053944351
C            0.42066341547793       -1.12449934864856        0.01844848151755
C            0.91807808019498        0.17171473536591        0.03526216122680
C            0.08083667219347        1.31807367077562        0.05024174637332
O            0.44829460308478        2.48697913748994        0.11286954616382
N           -1.30977375650282        0.99087130385516       -0.04661053680517
C           -2.21991289766035        2.06592038754043       -0.05919933466817
C           -1.82490295611730       -0.29628196288235        0.03163197813767
O           -3.01178387367061       -0.53245008475994        0.09311012327018
N           -0.91253796350957       -1.36892355190478        0.04151777008389
C           -1.39959969748385       -2.72866798469356        0.02304737598783
H            3.73586029060576        1.20835223027877        1.01473374220157
H            4.00519475344124        1.01203253585566       -0.72910798220722
H            2.69278884065498        2.06906508126369       -0.13794938319284
H            3.60765870584383       -1.66393502694034       -0.06421767293993
H           -1.89700041395540        2.86430583606822        0.55639402291916
H           -2.67015061178892        3.65545765869625       -1.14062501966674
H           -3.25096502300097        1.79024812524333        0.05697202278049
H           -1.06756965608428       -3.26955587985256        0.91300131668211
H           -1.03838191875013       -3.24758034673803       -0.86896714811194
H           -2.48797098789409       -2.69406609013888        0.00225743277265
H            1.44311949677031       -2.98960057568272       -0.01733233654255
25
 energy: 79.235105592185 xtb: 6.6.1 (8d0f1dd)
C            3.24283377277281        1.14632262439958        0.03621420548948
N            2.31185839471737        0.06130445943869        0.01106689905483
C            2.62234815226653       -1.25640607138520       -0.00298984894601
N            1.47170031591628       -1.98414448304399       -0.00491231676659
C            0.42321178470857       -1.12705912504901        0.02522639564464
C            0.92270036024068        0.16909959543705        0.04440818115472
C            0.08415262308982        1.31421111090287        0.06167691307483
O            0.45418630971387        2.48301147904404        0.11190820718335
N           -1.29803373508370        0.97899103576766       -0.01619389232262
C           -2.20827436934956        2.01949569620785       -0.03446785348555
C           -1.81646290377214       -0.30969153331424        0.04530368901048
O           -3.00476095435738       -0.53999271984225        0.10555193294192
N           -0.90521581152112       -1.37797728472069        0.04262412675699
C           -1.39341038761666       -2.73579986531031        0.02934577869968
H            3.73387396128653        1.20794103813886        1.01047496709580
H            4.00371104212657        1.01017482545868       -0.73371079964722
H            2.69098713377676        2.06779782870427       -0.14143389782224
H            3.60827013335082       -1.65575506888229       -0.06438796926668
H           -1.91225642792399        2.88667877979498        0.49103857425306
H           -2.71052282986212        3.84241236639526       -1.16795588596690
H           -3.24787871186387        1.76177464664364       -0.01280811277493
H           -1.06005961790289       -3.26870609701813        0.92292295499279
H           -1.02943003043686       -3.25371529945063       -0.86113230173122
H           -2.48231341939824       -2.70393697588327        0.00718701490021
H            1.45029901889921       -2.99063000539168       -0.01829568863423
25