25
 energy: -42.442284718052 xtb: 6.6.1 (8d0f1dd)
C            3.24126386130581        1.15063782374383        0.04188499083675
N            2.32055840398440        0.05150896203377        0.01658297075164
C            2.63374240136127       -1.25832381766397       -0.01696848937564
N            1.49809647488673       -1.98948695158966       -0.00584259585186
C            0.43668881995753       -1.14763179609624        0.04107275905665
C            0.92945190873442        0.16286320739431        0.05818753730025
C            0.10244629306513        1.30065680757133        0.08199895966568
O            0.45321760699547        2.48148913984152        0.08883624854531
N           -1.29189742348024        0.95180125756169        0.08847072100648
C           -2.18511269383458        1.95764160502224        0.12339208711041
C           -1.79810732403005       -0.35745025875344        0.08693225084827
O           -2.99110054963000       -0.58907494988648        0.10306062652372
N           -0.88597239880554       -1.41569932607604        0.05740867359164
C           -1.38089654931663       -2.77310037871253        0.04081683261833
H            3.73135503020881        1.21816329791297        1.01627686644104
H            4.00155210387787        1.02347985598815       -0.72932125567621
H            2.67712690024955        2.06696766948560       -0.13294646505461
H            3.62463288691678       -1.65511863754779       -0.04963182595634
H           -1.79522360255452        2.95622665256977        0.16109738954424
H           -3.09303902918688        4.49483708364301       -1.37458130065453
H           -3.22769012006629        1.71015745662468        0.08537309466599
H           -1.05762674585222       -3.30969532078522        0.93522589715530
H           -1.03227067314634       -3.29585898385361       -0.85190559752802
H           -2.46913883123022       -2.71762131260452        0.02557267582515
H            1.46229541201211       -2.99599930124281       -0.02785499897754
