72
 energy: -103.309854814455 gnorm: 0.097007876888 xtb: 6.6.1 (8d0f1dd)
N           -1.48233847364247        2.77608808919043        2.22021473117896
C           -1.55593117123744        2.18084475893812        1.14227513874791
C           -2.74169869048616        2.07038289602817        0.23553276473104
C           -3.30995490000831        0.65659654194888        0.32022343449087
C           -4.30014649851734        0.25798413597243       -0.58061982411684
C           -4.85223537885757       -1.00940453534391       -0.53130059271000
O           -5.82129925204037       -1.47055503691697       -1.35725820020999
C           -6.40004053945584       -0.59204302581251       -2.29138452468010
C           -4.40091887800782       -1.93186191682449        0.44613733033880
O           -4.99557876582483       -3.14430418002992        0.41755688559273
C           -4.66724433788075       -4.08338145198223        1.41466053819162
C           -3.42107791257115       -1.53277758346372        1.33495099404164
C           -2.88129909346240       -0.24991982664388        1.27215050966004
C           -2.17992215173514        2.30787817312178       -1.19519268971109
C           -1.26107091983313        1.17601311036999       -1.66302556540929
C            0.01959030240154        1.11654318968972       -0.90373219289254
N            0.62664322879542       -0.03024127034442       -0.57309019463411
C            2.00505813444598       -0.02913944635771       -0.15649163027269
C            2.93165906113957       -0.54263766951552       -1.27732305770612
C            4.36260291230673       -0.43486172862428       -0.83438384439395
C            5.07892183198892        0.72799445494504       -1.04206151371471
C            6.39219962322665        0.83814809876886       -0.60457505126101
C            7.00683706140598       -0.21225017489108        0.05635540167693
O            8.27404649456541       -0.21238509776893        0.52423949773726
C            9.07530771290078        0.92700784843325        0.31714390599930
C            6.27773998937698       -1.40664988191483        0.28064371952934
O            6.95555662840782       -2.38302434159545        0.92936137965681
C            6.32338197539521       -3.61796046533634        1.15485704887594
C            4.96967400232964       -1.49706204010889       -0.16147336862317
C           -0.05249393554935       -1.30201334499598       -0.61992464185829
C           -3.88626218854250        3.06400812701302        0.61766896023033
C           -4.54364232717273        2.67872941161146        1.96443018419831
C           -3.41113895670390        4.52555710246959        0.51991163131043
H           -4.65505015041695        0.95738572961341       -1.31966850409841
H           -6.84876040161544        0.27702866308811       -1.80200040278144
H           -7.18020274314784       -1.16756547790761       -2.78613192803022
H           -5.67168675131534       -0.25810481811454       -3.03815833944341
H           -4.88372863242035       -3.69785540957415        2.41528749467315
H           -5.29719871334712       -4.94855361062813        1.21834710725485
H           -3.61512119452035       -4.38210100105669        1.35827572076815
H           -3.07013063582474       -2.20465602407045        2.10042380097581
H           -2.14041396249427        0.03199494986213        2.00426395701605
H           -3.00957096324909        2.39078790609807       -1.89806047709948
H           -1.63566042445029        3.24998739480501       -1.21250768249914
H           -1.80460906646577        0.23341420636624       -1.62485274637409
H           -0.99666115050117        1.37482712849176       -2.70830719500513
H           -0.67564274300461        1.66089015620849        0.63611274002116
H            0.64399802545904        1.98639818260540       -0.93705119009627
H            2.11640193546778       -0.66410960183723        0.72678857092377
H            2.30837855673143        0.98202175844441        0.10887278940544
H            2.77198240857544        0.06051813603481       -2.16936421070305
H            2.68531147366314       -1.58031688026134       -1.51039558561747
H            4.62658229211210        1.55742017995555       -1.56252622248382
H            6.92949906400306        1.75348263892236       -0.79292574254958
H            8.65643751269872        1.80762621961997        0.81411457251579
H            9.20761110648528        1.13777265570168       -0.74917231438354
H           10.04052126106735        0.68957049516277        0.75953825789650
H            7.06383127583807       -4.23846477526370        1.65697563034412
H            5.44690901388465       -3.50972209736723        1.80190455273966
H            6.02859916759728       -4.09765350781608        0.21613558420891
H            4.40860355778757       -2.40504008692563       -0.00330025292132
H           -0.21612593516796       -1.62457372176572       -1.65130142780642
H           -1.01630823314847       -1.23844182122891       -0.11240826771009
H            0.55854612196124       -2.04980247315109       -0.11897958545873
H           -4.66014844331224        2.94947960552259       -0.14352068493581
H           -3.81088864902376        2.80675498764542        2.76722481383621
H           -4.93153811240475        1.67476472219848        1.98408052925837
H           -5.35742326688284        3.38463904754428        2.15405055960021
H           -2.57901585936306        4.70257178378341        1.20805132055783
H           -3.09555090264300        4.81795112374353       -0.47679744527543
H           -4.21489500509292        5.20035749664603        0.82035494247615
H           -0.61178266222300        2.81541060345385        2.72867956489913
72
 energy: -103.313158946382 gnorm: 0.037280376248 xtb: 6.6.1 (8d0f1dd)
N           -1.50023970203488        2.80772808125695        2.23424584859199
C           -1.56273124807664        2.17032395167624        1.15996253267970
C           -2.74561850933113        2.06574190613815        0.24464350428742
C           -3.31087591211318        0.65457490540434        0.32239242859189
C           -4.30070853002007        0.25595988025656       -0.57795849628483
C           -4.85206681346891       -1.01019067319471       -0.52983164473745
O           -5.82468959710425       -1.47393105018391       -1.35848621530160
C           -6.39920588084563       -0.59280797843214       -2.29130370672180
C           -4.40243908532631       -1.93102259977321        0.44629288231494
O           -4.99929648894969       -3.14994591608452        0.41685217796000
C           -4.66745724812111       -4.08446319495125        1.41435610251555
C           -3.42470039635605       -1.53142172709293        1.33685632969533
C           -2.88563799790207       -0.25006201860773        1.27525671116244
C           -2.18850034402324        2.30660961972378       -1.18676908570908
C           -1.25775420995497        1.18748323192469       -1.67862751494300
C            0.01823425873531        1.12903376124130       -0.90644814393018
N            0.63546068090357       -0.04465036065190       -0.56396180299228
C            2.00970185437008       -0.04119189234028       -0.15882007325437
C            2.94098424854177       -0.54717811714527       -1.27994056350191
C            4.36911051895445       -0.43957280717056       -0.84327100561076
C            5.08374863710954        0.72565260143813       -1.04571565027929
C            6.39392091607218        0.83787911760747       -0.60343711435902
C            7.00749536722918       -0.21227053857178        0.05773444584783
O            8.28201395106809       -0.21380138174842        0.52723550620851
C            9.07668301451373        0.92722679362870        0.31776295283601
C            6.27940717777950       -1.40545434709548        0.28070416460903
O            6.96012235324082       -2.38504016741514        0.93247022446238
C            6.32360162832730       -3.61747733239489        1.15535543602999
C            4.97498885419579       -1.49834893656508       -0.16560125598629
C           -0.04886714880041       -1.30812257753120       -0.61841151522619
C           -3.89201451756258        3.06174083591027        0.59318732688700
C           -4.52531995261801        2.71686863238825        1.95230950643762
C           -3.42038228917972        4.51926900575796        0.54413721171936
H           -4.65184421568716        0.95496791204058       -1.31923090365819
H           -6.84641857088678        0.27798342317022       -1.80139610393357
H           -7.18015238657223       -1.16608050147436       -2.78831602852933
H           -5.66945714008877       -0.25758460795232       -3.03628904192838
H           -4.88252387236990       -3.69717892724472        2.41541034418310
H           -5.29590434938958       -4.95170522964206        1.22003700100931
H           -3.61442672496310       -4.38027145401329        1.35756099378965
H           -3.07000338146290       -2.20622326384588        2.09938139175753
H           -2.14004069514670        0.03269550540669        2.00189338036877
H           -3.01886184585720        2.39647126106298       -1.88912705073947
H           -1.63898205487704        3.24817124292850       -1.20290077879783
H           -1.79301318476648        0.24055368445865       -1.62817985701652
H           -1.02437905171351        1.38426572970411       -2.73542261590472
H           -0.68487799787592        1.65703075225403        0.66780342254243
H            0.66021230853809        1.99158200328340       -0.97115750870517
H            2.12878264626542       -0.67238290244375        0.72757288704377
H            2.30390622783831        0.97566182935806        0.10645625343550
H            2.77030064023904        0.06070595157167       -2.16888111151566
H            2.68823213556470       -1.58249813459409       -1.51255300142566
H            4.62815620799840        1.55668858103132       -1.56267375676144
H            6.93089482591123        1.75415274843251       -0.78984121883854
H            8.65570539509589        1.80815503596162        0.81361923795760
H            9.20655418141011        1.13799282864250       -0.74904685556666
H           10.04341928085200        0.69247342305461        0.75934750638945
H            7.06229092482188       -4.24009272011233        1.65776813520916
H            5.44530370326531       -3.50858833441476        1.80068198053982
H            6.02749988021383       -4.09590123065695        0.21574681444387
H            4.41072584016838       -2.40406125782994       -0.00467878303517
H           -0.21657752690993       -1.63033124519439       -1.65167383303878
H           -1.01500011266476       -1.24057222922300       -0.11215442450370
H            0.55722623569308       -2.05842588238675       -0.11597072450455
H           -4.67147589958882        2.94431210264423       -0.16660151194038
H           -3.79560894962448        2.81787495836637        2.75387794204831
H           -4.90935784448673        1.70305380778178        1.95663214052063
H           -5.35293209833638        3.39832720606077        2.15203148791675
H           -2.58477375045762        4.68663723575035        1.22241299136669
H           -3.10882057002181        4.79321650180471       -0.46089462378045
H           -4.22875554828717        5.19044289231721        0.83232849784150
H           -0.62196749263874        2.81673998111827        2.74178528985405
72
 energy: -103.314635387500 gnorm: 0.017265844315 xtb: 6.6.1 (8d0f1dd)
N           -1.48717054210006        2.80387686112328        2.22586616079784
C           -1.55032862454259        2.16465923735155        1.14481124734799
C           -2.74530105445174        2.06934754680490        0.24318961478159
C           -3.30775155887514        0.65792194313765        0.31918740686723
C           -4.30003120859953        0.25902782468772       -0.57855561542649
C           -4.84906761010803       -1.00727432152003       -0.53024658556394
O           -5.82478136741151       -1.47341810989234       -1.35905802118621
C           -6.39995880858791       -0.59310073405036       -2.29098611883852
C           -4.39881553043985       -1.92731485528780        0.44409189099157
O           -4.99875549964895       -3.14943021606903        0.41598067676854
C           -4.66770720052826       -4.08222996554818        1.41349622742956
C           -3.42091533400486       -1.52851525378130        1.33410907817925
C           -2.88210876653667       -0.24802485308535        1.27141866737237
C           -2.19017179372253        2.30844264974458       -1.19005793486505
C           -1.25864107671526        1.18328409037269       -1.67301722337447
C            0.00996140371863        1.13470836208570       -0.89478412447808
N            0.63631517794753       -0.04876916744344       -0.55329326972240
C            2.00645853793433       -0.03617116979308       -0.15475768266908
C            2.93841210698067       -0.54348928693799       -1.27554988052988
C            4.36298539305863       -0.43641620733525       -0.83737423431176
C            5.07894922133563        0.72791302109282       -1.04206239843543
C            6.38994424106358        0.83876760231386       -0.60414680201740
C            7.00204322916740       -0.21171274240064        0.05605636913008
O            8.28104098092356       -0.21488596190271        0.52567420718149
C            9.07414531627357        0.92562936587720        0.31698416776906
C            6.27421492056567       -1.40315058315767        0.28066352962411
O            6.95905389137705       -2.38511628414928        0.93119321111088
C            6.32361454092960       -3.61727655811235        1.15479912464776
C            4.96935602396864       -1.49549355692840       -0.16140255085542
C           -0.04927345024386       -1.30627115432563       -0.61953616576082
C           -3.88433871444464        3.06380259465942        0.60913735948351
C           -4.52965486192495        2.70248650894873        1.95988224819825
C           -3.41126740103144        4.52238349836278        0.53629573712321
H           -4.65344908370971        0.95834292584277       -1.31874614158340
H           -6.84843383886323        0.27797522524196       -1.80156226420395
H           -7.18101324278508       -1.16768314012323       -2.78655405940716
H           -5.67208139931541       -0.25725872494704       -3.03768753782107
H           -4.88313507599714       -3.69579292847103        2.41523562386210
H           -5.29744574173931       -4.94859600087055        1.21861761199080
H           -3.61517961752118       -4.38061960435159        1.35799621524523
H           -3.06827245307532       -2.20320338467640        2.09861053752124
H           -2.13898828595141        0.03599171713725        2.00009759371672
H           -3.01519754457009        2.39534161839550       -1.89866369576580
H           -1.63439526801251        3.24820299399213       -1.21210726855825
H           -1.79449537131501        0.23487490120570       -1.62210170985343
H           -1.01359104726717        1.37539977096498       -2.72671908021660
H           -0.68117524289753        1.66228625377621        0.64914439132581
H            0.65309558049746        1.99768665552015       -0.94709720171441
H            2.12551987740049       -0.66473435949497        0.73370977580036
H            2.29961844506096        0.98338663632718        0.11004255643127
H            2.76752016533012        0.06388980942772       -2.16602582265881
H            2.68240952789972       -1.57792234518530       -1.50760523093051
H            4.62339130559595        1.55797914356376       -1.56143935416982
H            6.92841576114947        1.75378707616706       -0.79327471645938
H            8.65483662180996        1.80734084161677        0.81352615211397
H            9.20598315749271        1.13767230509707       -0.74949075823899
H           10.04042595164522        0.68937551852619        0.75923078181464
H            7.06413074797557       -4.23842437008882        1.65641665902451
H            5.44600881571396       -3.51007524436780        1.80171392553571
H            6.02697545108774       -4.09730205869076        0.21583026067831
H            4.40485728239060       -2.40162114160573       -0.00200963727323
H           -0.21727236133189       -1.62498313517759       -1.65494127586440
H           -1.01713418921172       -1.24090537571259       -0.11396949468331
H            0.55698156702214       -2.05646211194908       -0.11845066773141
H           -4.66573768030907        2.94564829202320       -0.14742030714020
H           -3.81345031834758        2.79591401658468        2.76894331856819
H           -4.92042239417374        1.68242184016812        1.96894183109360
H           -5.36297732372490        3.37383146436424        2.15678948802709
H           -2.57504379801340        4.69817146834225        1.20497123844427
H           -3.10120680387748        4.79614298772503       -0.47366738037262
H           -4.21656954329071        5.19715700391729        0.81643195550770
H           -0.59393445564407        2.79997071952208        2.71380483926866
72
 energy: -103.314757986550 gnorm: 0.013759592991 xtb: 6.6.1 (8d0f1dd)
N           -1.51189127106371        2.79642044370043        2.23344072074294
C           -1.55460081391628        2.16978585620704        1.14597188744369
C           -2.74636036746980        2.06908526063173        0.24082118083782
C           -3.30914800463931        0.65629113906592        0.32021611849713
C           -4.30035027745628        0.25637712299872       -0.57870201475907
C           -4.85003841469612       -1.00955325769681       -0.52893562316370
O           -5.82535629877737       -1.47445787947150       -1.35896128438838
C           -6.39846524146331       -0.59337794688973       -2.29104953274873
C           -4.40094984341049       -1.92927577332637        0.44599105795378
O           -4.99995303034411       -3.15181830217864        0.41779841435439
C           -4.66737775069682       -4.08453287486939        1.41432901227387
C           -3.42312425312127       -1.53184320477906        1.33635945078382
C           -2.88478577595838       -0.25093719426386        1.27386252483369
C           -2.18617221971615        2.30918222962394       -1.18987199835028
C           -1.25912535855452        1.17937973947272       -1.66869785480472
C            0.01104281117796        1.13113869236991       -0.89969651742932
N            0.63779210781902       -0.04854690394487       -0.56337802672724
C            2.00719288080192       -0.03568473437261       -0.16381474350007
C            2.94176799363800       -0.54663529615987       -1.28144049331273
C            4.36556744944646       -0.43838083048822       -0.83858869524961
C            5.08257816616749        0.72571716264374       -1.04358837559612
C            6.39357390732173        0.83748630656936       -0.60492891295156
C            7.00473053500599       -0.21261750561831        0.05573107082126
O            8.28291532277387       -0.21355596469762        0.52714506006142
C            9.07572156707815        0.92682510531366        0.31806102686612
C            6.27786639357365       -1.40450897261701        0.27888641822504
O            6.96107310171520       -2.38611622650064        0.93150618536084
C            6.32427926645870       -3.61730262482964        1.15525218555086
C            4.97316165882699       -1.49808698758980       -0.16417054052497
C           -0.05018480632231       -1.30371717876622       -0.62135374544973
C           -3.88465077560096        3.06441533303128        0.60962683929990
C           -4.53326506459595        2.70347849535448        1.95974090257214
C           -3.41446537987617        4.52626036475235        0.53298245217728
H           -4.65374592991877        0.95513376093099       -1.31959879876349
H           -6.84742186772701        0.27762088315583       -1.80209435033716
H           -7.17955731294339       -1.16687278665858       -2.78763862401620
H           -5.66973204690985       -0.25815979635326       -3.03727487604524
H           -4.88326864863518       -3.69980015066689        2.41657312742702
H           -5.29628493464781       -4.95143358650498        1.21932822348172
H           -3.61465241981459       -4.38262725563284        1.35858975544233
H           -3.07231488956489       -2.20657762442425        2.10166476665135
H           -2.14311640678886        0.03188660905394        2.00482855688731
H           -3.01098708268810        2.39380446661679       -1.89779303050498
H           -1.63370529467422        3.25061678896997       -1.20953459576502
H           -1.80065793286757        0.23349022361042       -1.62561858680890
H           -1.00397733941523        1.37699505838921       -2.71697884409004
H           -0.68240096855401        1.66668731736740        0.65482968046894
H            0.65563377137035        1.99012605768122       -0.94929384864094
H            2.12273905277501       -0.66674709312594        0.72348579455835
H            2.30761886616668        0.98077230521616        0.10364785499237
H            2.77528483064079        0.05879057543235       -2.17377720919905
H            2.68797140245685       -1.58179929297400       -1.51447108844358
H            4.62833665248749        1.55528386148566       -1.56454690192189
H            6.93141365249239        1.75335459001647       -0.79166952264480
H            8.65694243372921        1.80902245960994        0.81411893043012
H            9.20881745259837        1.13845060262944       -0.74843405722270
H           10.04217824576857        0.69161322956765        0.76058182873769
H            7.06309849850310       -4.23912189472505        1.65848029024505
H            5.44608849171207       -3.50881904945478        1.80106271030784
H            6.02903900967897       -4.09788142798145        0.21619720666617
H            4.41090212375099       -2.40608282635206       -0.00714352852703
H           -0.21953699330789       -1.62930806517521       -1.65372590719791
H           -1.01625459333199       -1.23662881469588       -0.11273352470300
H            0.55743701456115       -2.05138055606623       -0.11783567677048
H           -4.66315891077637        2.94811495938751       -0.14918592925251
H           -3.80775441203114        2.81158095570851        2.75897193751966
H           -4.93113666205607        1.68515651297574        1.98557320452349
H           -5.35512640199581        3.39049682567276        2.14989348694659
H           -2.58534848961038        4.69772284471796        1.21179926558521
H           -3.09902270315075        4.81985875287540       -0.47061822050543
H           -4.22107074398301        5.19551175675813        0.82285828509902
H           -0.62224396897048        2.80765261486577        2.72546753378305
72
 energy: -103.315116574057 gnorm: 0.006926127228 xtb: 6.6.1 (8d0f1dd)
N           -1.49841354533335        2.80006198886334        2.23070658251361
C           -1.54800469656005        2.17081830350740        1.14688198791955
C           -2.74262479574990        2.06887012816203        0.24300041144637
C           -3.30859160226149        0.65732463715689        0.32137814375780
C           -4.29976420493700        0.25824463964055       -0.57824994296093
C           -4.84955852374378       -1.00786658827032       -0.52915017869519
O           -5.82475724771524       -1.47255976730274       -1.35898735461629
C           -6.39932798949249       -0.59220931421372       -2.29068507606824
C           -4.39993800349447       -1.92777184281863        0.44528571350019
O           -4.99894625916383       -3.14967375696372        0.41681921085254
C           -4.66716447018697       -4.08208385426702        1.41361454974968
C           -3.42132517062000       -1.53118947693478        1.33547310622187
C           -2.88292043964038       -0.25030773236437        1.27357745205275
C           -2.18728853532788        2.30799245660414       -1.18954711633595
C           -1.25955440883699        1.18092999806323       -1.67300942979108
C            0.01219530245845        1.13025425538027       -0.90628995170785
N            0.63600482919363       -0.04646164378529       -0.56358565101837
C            2.00406867122636       -0.03466046980369       -0.15713262063035
C            2.93795042317497       -0.54425352916659       -1.27579003012790
C            4.36330852047263       -0.43668672323549       -0.83652426875562
C            5.08050171523007        0.72720437648571       -1.04212742485750
C            6.39183149752424        0.83868853874880       -0.60378842918859
C            7.00298798174325       -0.21194138742338        0.05637872081556
O            8.28100684774804       -0.21348403872356        0.52651923793263
C            9.07433921565351        0.92622544012145        0.31679605950223
C            6.27605177575763       -1.40356958838382        0.28009110855430
O            6.95896817179272       -2.38534075622491        0.93190362891703
C            6.32289521391653       -3.61696453410632        1.15481025743503
C            4.97088050924067       -1.49658701729061       -0.16224471573219
C           -0.04986499967294       -1.30357931184812       -0.61993882186960
C           -3.88584157705884        3.06114374163455        0.60609515058938
C           -4.52988480609491        2.70187671236162        1.95733489323456
C           -3.41447214764384        4.52110956423032        0.53557811352968
H           -4.65295524566809        0.95744983445336       -1.31880683408850
H           -6.84829741202056        0.27844234539357       -1.80140341832526
H           -7.18048606542724       -1.16623371911294       -2.78671847279492
H           -5.67131925155200       -0.25670825155108       -3.03743313574882
H           -4.88289075162298       -3.69621978657758        2.41540030172854
H           -5.29645560698214       -4.94893278222279        1.21929200211561
H           -3.61449760627203       -4.38038260373154        1.35804564016681
H           -3.06865791540604       -2.20647040988476        2.09900961729526
H           -2.13855538373145        0.03188756478027        2.00217701289197
H           -3.01608112099410        2.39331884948397       -1.89276473536192
H           -1.63748080782213        3.25015129487882       -1.20880519315835
H           -1.80020810236520        0.23565586991314       -1.62747573849167
H           -1.01270260541155        1.37974905535238       -2.72363988168995
H           -0.68079363288791        1.65811079884399        0.65550020643947
H            0.65692797287173        1.98840995827246       -0.95717278121890
H            2.12106169191803       -0.66691815817125        0.72987635905699
H            2.30431407696374        0.98096981322520        0.11105098081741
H            2.76892943840177        0.06212492031239       -2.16677316043587
H            2.68435496880170       -1.57953895317022       -1.50905137656969
H            4.62557227085509        1.55769523304831       -1.56096531210011
H            6.92962435116585        1.75440978990716       -0.79085865536089
H            8.65589708985228        1.80817812529186        0.81344226296733
H            9.20598740213929        1.13794455238965       -0.74987546260264
H           10.04133969872344        0.69082469482116        0.75820656809870
H            7.06242647276702       -4.23930528637551        1.65646886807490
H            5.44537073533609       -3.50948967998244        1.80156228205013
H            6.02684695153112       -4.09636346093573        0.21547946678163
H            4.40748432094419       -2.40324822458737       -0.00213762693202
H           -0.21593688244110       -1.62911310019802       -1.65245383446666
H           -1.01703772591522       -1.23927676765631       -0.11362042571659
H            0.55680068719437       -2.05280845163756       -0.11621966102134
H           -4.66365133127251        2.94500220401522       -0.15458873360257
H           -3.80331661103283        2.80771701101764        2.75792308277640
H           -4.92033396051809        1.68299223819678        1.96947870317168
H           -5.35465186429352        3.38592011081736        2.15179351221251
H           -2.58222648962574        4.69126195257574        1.21329882147661
H           -3.10139860781474        4.80443050580640       -0.47039281121401
H           -4.22037932973373        5.19251477672717        0.82537036865914
H           -0.60734831179907        2.80969207301679        2.72111734604322
72
 energy: -103.315075463749 gnorm: 0.007257027621 xtb: 6.6.1 (8d0f1dd)
N           -1.49992304588415        2.80106850479670        2.23190946428605
C           -1.55253369707065        2.16802070601591        1.14978959254453
C           -2.74672152705551        2.07002551472537        0.24376654999777
C           -3.31101669473092        0.65795905184162        0.32001560301187
C           -4.30132938014279        0.25751316193363       -0.57960492552577
C           -4.85011418291010       -1.00910122749221       -0.52996560069298
O           -5.82510309618550       -1.47474240732716       -1.35979604385435
C           -6.39930322877591       -0.59447949002767       -2.29156046210870
C           -4.40043436368665       -1.92806726865400        0.44504308505584
O           -4.99897401790234       -3.15072772185915        0.41687115454259
C           -4.66777251936389       -4.08336406061766        1.41349604344863
C           -3.42293195855335       -1.52944600972534        1.33576846845770
C           -2.88511803564995       -0.24836448177748        1.27272687822482
C           -2.18830851553344        2.30799685803076       -1.18873535518365
C           -1.25699216978505        1.18256355248929       -1.67080394641080
C            0.01287292101713        1.13182246722590       -0.90014641872838
N            0.63758235615555       -0.04687813500462       -0.55896854821254
C            2.00711342879654       -0.03638865768538       -0.15824959433235
C            2.93988317501826       -0.54514554327839       -1.27903557688705