25
 energy: -42.021858854879 gnorm: 0.002501554527 xtb: 6.6.1 (8d0f1dd)
C            3.36539127460055        1.44002438920589        0.00400440429493
N            2.57842521980015        0.23498731490431        0.00314202374733
C            3.17935414459421       -1.00037165309680        0.02001078660417
N            2.60655843385406       -2.11830442514401        0.03717146001711
C            0.55300771016072       -0.99195920735962        0.03099856975638
C            1.21504195658435        0.18837731108802        0.01217610035079
C            0.25773434888984        1.32880447717038       -0.00691762319758
O            0.63391081737091        2.47877718054378       -0.03498682956314
N           -1.07843130991539        0.97828637251658        0.00795200034416
C           -2.05725977812856        2.05502658144296        0.00122458565875
C           -1.61006433558316       -0.31188964761142        0.02411276095991
O           -2.78594964755329       -0.54244421421179        0.02681653811537
N           -0.65303569203940       -1.31461814232315        0.03584153348871
C           -3.16902365577726       -3.41587992564056       -0.05287418665638
H            3.88297277115769        1.55314116631593        0.95953773175601
H            4.10973492470715        1.40087653850357       -0.79249051495395
H            2.71615597294689        2.30115461681036       -0.14667736387749
H            4.26315470883851       -0.99998745804741        0.01734696624006
H           -1.52617871648832        3.00507394744566        0.00246536118519
H           -2.68623612663631        1.97526419602044       -0.88601544760661
H           -2.69440176767179        1.97607813486452        0.88263248780898
H           -2.76297355852250       -3.81909395539881        0.85600231063109
H           -2.86721582953600       -3.82043174207138       -1.00009998873425
H           -3.86636721736304       -2.59928630858364       -0.01458060302028
H            1.55612686581801       -2.16336700575005        0.04437855455095
