      -----------------------------------------------------------      
     |                   =====================                   |     
     |                           x T B                           |     
     |                   =====================                   |     
     |                         S. Grimme                         |     
     |          Mulliken Center for Theoretical Chemistry        |     
     |                    University of Bonn                     |     
      -----------------------------------------------------------      

   * xtb version 6.6.1 (8d0f1dd) compiled by 'conda@1efc2f54142f' on 2023-08-01

   xtb is free software: you can redistribute it and/or modify it under
   the terms of the GNU Lesser General Public License as published by
   the Free Software Foundation, either version 3 of the License, or
   (at your option) any later version.
   
   xtb is distributed in the hope that it will be useful,
   but WITHOUT ANY WARRANTY; without even the implied warranty of
   MERCHANTABILITY or FITNESS FOR A PARTICULAR PURPOSE.  See the
   GNU Lesser General Public License for more details.
   
   Cite this work as:
   * C. Bannwarth, E. Caldeweyher, S. Ehlert, A. Hansen, P. Pracht,
     J. Seibert, S. Spicher, S. Grimme, WIREs Comput. Mol. Sci., 2020, 11,
     e01493. DOI: 10.1002/wcms.1493
   
   for GFN2-xTB:
   * C. Bannwarth, S. Ehlert and S. Grimme., J. Chem. Theory Comput., 2019,
     15, 1652-1671. DOI: 10.1021/acs.jctc.8b01176
   for GFN1-xTB:
   * S. Grimme, C. Bannwarth, P. Shushkov, J. Chem. Theory Comput., 2017,
     13, 1989-2009. DOI: 10.1021/acs.jctc.7b00118
   for GFN0-xTB:
   * P. Pracht, E. Caldeweyher, S. Ehlert, S. Grimme, ChemRxiv, 2019, preprint.
     DOI: 10.26434/chemrxiv.8326202.v1
   for GFN-FF:
   * S. Spicher and S. Grimme, Angew. Chem. Int. Ed., 2020, 59, 15665-15673.
     DOI: 10.1002/anie.202004239
   
   for ALPB and GBSA implicit solvation:
   * S. Ehlert, M. Stahn, S. Spicher, S. Grimme, J. Chem. Theory Comput.,
     2021, 17, 4250-4261. DOI: 10.1021/acs.jctc.1c00471
   
   for DFT-D4:
   * E. Caldeweyher, C. Bannwarth and S. Grimme, J. Chem. Phys., 2017,
     147, 034112. DOI: 10.1063/1.4993215
   * E. Caldeweyher, S. Ehlert, A. Hansen, H. Neugebauer, S. Spicher,
     C. Bannwarth and S. Grimme, J. Chem. Phys., 2019, 150, 154122.
     DOI: 10.1063/1.5090222
   * E. Caldeweyher, J.-M. Mewes, S. Ehlert and S. Grimme, Phys. Chem. Chem. Phys.
     2020, 22, 8499-8512. DOI: 10.1039/D0CP00502A
   
   for sTDA-xTB:
   * S. Grimme and C. Bannwarth, J. Chem. Phys., 2016, 145, 054103.
     DOI: 10.1063/1.4959605
   
   in the mass-spec context:
   * V. Asgeirsson, C. Bauer and S. Grimme, Chem. Sci., 2017, 8, 4879.
     DOI: 10.1039/c7sc00601b
   * J. Koopman and S. Grimme, ACS Omega 2019, 4, 12, 15120-15133.
     DOI: 10.1021/acsomega.9b02011
   
   for metadynamics refer to:
   * S. Grimme, J. Chem. Theory Comput., 2019, 155, 2847-2862
     DOI: 10.1021/acs.jctc.9b00143
   
   for SPH calculations refer to:
   * S. Spicher and S. Grimme, J. Chem. Theory Comput., 2021, 17, 1701-1714
     DOI: 10.1021/acs.jctc.0c01306
   
   with help from (in alphabetical order)
   P. Atkinson, C. Bannwarth, F. Bohle, G. Brandenburg, E. Caldeweyher
   M. Checinski, S. Dohm, S. Ehlert, S. Ehrlich, I. Gerasimov, C. Hölzer
   A. Katbashev, J. Koopman, C. Lavigne, S. Lehtola, F. März, M. Müller,
   F. Musil, H. Neugebauer, J. Pisarek, C. Plett, P. Pracht, F. Pultar,
   J. Seibert, P. Shushkov, S. Spicher, M. Stahn, M. Steiner, T. Strunk,
   J. Stückrath, T. Rose, and J. Unsleber
   
 * started run on 2024/06/05 at 19:58:07.156     

           -------------------------------------------------
          |                Calculation Setup                |
           -------------------------------------------------

          program call               : xtb struc.xyz --opt loose --input .xc1 --gfn2
          hostname                   : n-62-29-35
          coordinate file            : struc.xyz
          omp threads                :                     1

   ID    Z sym.   atoms
    1    6 C      1, 3, 5-7, 10, 11, 14
    2    7 N      2, 4, 9, 13
    3    8 O      8, 12
    4    1 H      15-25
constraining bond 11 23 to    3.7133300 Å, actual value:    3.1827480 Å

           -------------------------------------------------
          |                 G F N 2 - x T B                 |
           -------------------------------------------------

        Reference                      10.1021/acs.jctc.8b01176
      * Hamiltonian:
        H0-scaling (s, p, d)           1.850000    2.230000    2.230000
        zeta-weighting                 0.500000
      * Dispersion:
        s8                             2.700000
        a1                             0.520000
        a2                             5.000000
        s9                             5.000000
      * Repulsion:
        kExp                           1.500000    1.000000
        rExp                           1.000000
      * Coulomb:
        alpha                          2.000000
        third order                    shell-resolved
        anisotropic                    true
        a3                             3.000000
        a5                             4.000000
        cn-shift                       1.200000
        cn-exp                         4.000000
        max-rad                        5.000000


          ...................................................
          :                      SETUP                      :
          :.................................................:
          :  # basis functions                  67          :
          :  # atomic orbitals                  67          :
          :  # shells                           39          :
          :  # electrons                        74          :
          :  max. iterations                   250          :
          :  Hamiltonian                  GFN2-xTB          :
          :  restarted?                      false          :
          :  GBSA solvation                  false          :
          :  PC potential                    false          :
          :  electronic temp.         5000.0000000     K    :
          :  accuracy                    1.0000000          :
          :  -> integral cutoff          0.2500000E+02      :
          :  -> integral neglect         0.1000000E-07      :
          :  -> SCF convergence          0.1000000E-05 Eh   :
          :  -> wf. convergence          0.1000000E-03 e    :
          :  Broyden damping             0.4000000          :
          ...................................................

 iter      E             dE          RMSdq      gap      omega  full diag
   1    -42.5894031 -0.425894E+02  0.445E+00    3.52       0.0  T
   2    -42.7683054 -0.178902E+00  0.251E+00    3.36       1.0  T
   3    -42.7759211 -0.761567E-02  0.147E+00    3.35       1.0  T
   4    -42.7728404  0.308066E-02  0.553E-01    3.33       1.0  T
   5    -42.7789548 -0.611444E-02  0.112E-01    3.35       1.0  T
   6    -42.7790473 -0.924914E-04  0.614E-02    3.33       1.0  T
   7    -42.7790721 -0.247928E-04  0.258E-02    3.34       1.0  T
   8    -42.7790772 -0.508996E-05  0.938E-03    3.34       2.1  T
   9    -42.7790779 -0.669422E-06  0.448E-03    3.34       4.5  T
  10    -42.7790780 -0.821511E-07  0.115E-03    3.34      17.4  T
  11    -42.7790780 -0.322662E-08  0.553E-04    3.34      36.2  T
  12    -42.7790780 -0.287052E-08  0.180E-04    3.34     111.1  T

   *** convergence criteria satisfied after 12 iterations ***

         #    Occupation            Energy/Eh            Energy/eV
      -------------------------------------------------------------
         1        2.0000           -0.9185990             -24.9964
       ...           ...                  ...                  ...
        31        1.9996           -0.6230278             -16.9534
        32        1.9995           -0.6194601             -16.8564
        33        1.9979           -0.5974976             -16.2587
        34        1.9932           -0.5789629             -15.7544
        35        1.9817           -0.5631863             -15.3251
        36        1.9779           -0.5602245             -15.2445
        37        1.9748           -0.5581234             -15.1873 (HOMO)
        38        0.0652           -0.4353579             -11.8467 (LUMO)
        39        0.0099           -0.4050467             -11.0219
        40        0.0013           -0.3732218             -10.1559
        41        0.0000           -0.2886859              -7.8555
        42                         -0.2065804              -5.6213
       ...                                ...                  ...
        67                          0.5625656              15.3082
      -------------------------------------------------------------
                  HL-Gap            0.1227656 Eh            3.3406 eV
             Fermi-level           -0.4890455 Eh          -13.3076 eV

 SCC (total)                   0 d,  0 h,  0 min,  0.035 sec
 SCC setup                      ...        0 min,  0.000 sec (  0.835%)
 Dispersion                     ...        0 min,  0.000 sec (  1.055%)
 classical contributions        ...        0 min,  0.000 sec (  0.280%)
 integral evaluation            ...        0 min,  0.005 sec ( 14.680%)
 iterations                     ...        0 min,  0.018 sec ( 49.937%)
 molecular gradient             ...        0 min,  0.012 sec ( 32.769%)
 printout                       ...        0 min,  0.000 sec (  0.408%)

         :::::::::::::::::::::::::::::::::::::::::::::::::::::
         ::                     SUMMARY                     ::
         :::::::::::::::::::::::::::::::::::::::::::::::::::::
         :: total energy             -42.750516709775 Eh    ::
         :: gradient norm              1.418951964224 Eh/a0 ::
         :: HOMO-LUMO gap              3.340621582928 eV    ::
         ::.................................................::
         :: SCC energy               -42.779077977399 Eh    ::
         :: -> isotropic ES            0.141123876439 Eh    ::
         :: -> anisotropic ES         -0.005230418907 Eh    ::
         :: -> anisotropic XC          0.011966818540 Eh    ::
         :: -> dispersion             -0.022657731803 Eh    ::
         :: repulsion energy           0.531105277918 Eh    ::
         :: add. restraining          -0.502658169303 Eh    ::
         :: total charge               1.000000000002 e     ::
         :::::::::::::::::::::::::::::::::::::::::::::::::::::

      ----------------------------------------------------------- 
     |                   =====================                   |
     |                        A N C O P T                        |
     |                   =====================                   |
     |               Approximate Normal Coordinate               |
     |                Rational Function Optimizer                |
      ----------------------------------------------------------- 

          ...................................................
          :                      SETUP                      :
          :.................................................:
          :   optimization level             loose          :
          :   max. optcycles                   200          :
          :   ANC micro-cycles                  20          :
          :   degrees of freedom                69          :
          :.................................................:
          :   RF solver                   davidson          :
          :   write xtbopt.log                true          :
          :   linear?                        false          :
          :   energy convergence         0.5000000E-04 Eh   :
          :   grad. convergence          0.4000000E-02 Eh/α :
          :   maxmium RF displ.          1.0000000          :
          :   Hlow (freq-cutoff)         0.1000000E-01      :
          :   Hmax (freq-cutoff)         5.0000000          :
          :   S6 in model hess.         20.0000000          :
          ...................................................

generating ANC from model Hessian ...
Using Lindh-Hessian (1995)
 Shifting diagonal of input Hessian by    1.4962003031569779     
 Lowest  eigenvalues of input Hessian
    0.010000    0.000000    0.000000    0.000000    0.000000    0.000000
    0.000000    1.499193    1.500592    1.504890    1.506135    1.508022
    1.509275    1.515028    1.518334    1.521815    1.530108    1.537896
 Highest eigenvalues
    3.588378    3.645991    3.717040    3.800706    3.912592    4.118041


........................................................................
.............................. CYCLE    1 ..............................
........................................................................

 iter      E             dE          RMSdq      gap      omega  full diag
   1    -42.7790780 -0.427791E+02  0.626E-05    3.34       0.0  T
   2    -42.7790780 -0.124203E-10  0.329E-05    3.34     607.4  T
   3    -42.7790780  0.106581E-12  0.193E-05    3.34    1034.2  T
     SCC iter.                  ...        0 min,  0.005 sec
     gradient                   ...        0 min,  0.012 sec
 * total energy  :   -42.7505167 Eh     change       -0.6650680E-10 Eh
   gradient norm :     1.4189518 Eh/α   predicted     0.0000000E+00 (-100.00%)
   displ. norm   :     0.9876080 α      lambda       -0.1377603E+01
   maximum displ.:     0.9830288 α      in ANC's #1, #62, #51, ...

........................................................................
.............................. CYCLE    2 ..............................
........................................................................

 iter      E             dE          RMSdq      gap      omega  full diag
   1    -42.7309782 -0.427310E+02  0.112E+00    3.26       0.0  T
   2    -42.7416351 -0.106569E-01  0.753E-01    2.65       1.0  T
   3    -42.7430110 -0.137588E-02  0.394E-01    2.93       1.0  T
   4    -42.7430801 -0.691152E-04  0.161E-01    2.73       1.0  T
   5    -42.7434385 -0.358340E-03  0.472E-02    2.83       1.0  T
   6    -42.7434783 -0.397812E-04  0.172E-02    2.82       1.2  T
   7    -42.7434788 -0.591183E-06  0.378E-03    2.82       5.3  T
   8    -42.7434789 -0.101061E-06  0.129E-03    2.82      15.5  T
   9    -42.7434790 -0.180181E-07  0.601E-04    2.82      33.3  T
  10    -42.7434790 -0.221856E-08  0.211E-04    2.82      94.9  T
     SCC iter.                  ...        0 min,  0.014 sec
     gradient                   ...        0 min,  0.012 sec
 * total energy  :   -44.9377461 Eh     change       -0.2187229E+01 Eh
   gradient norm :     3.0496434 Eh/α   predicted    -0.1360637E+01 ( -37.79%)
   displ. norm   :     0.9924632 α      lambda       -0.3009059E+01
   maximum displ.:     0.9863614 α      in ANC's #1, #62, #41, ...

........................................................................
.............................. CYCLE    3 ..............................
........................................................................

 iter      E             dE          RMSdq      gap      omega  full diag
   1    -42.5379161 -0.425379E+02  0.135E+00    2.62       0.0  T
   2    -42.5420663 -0.415024E-02  0.113E+00    1.76       1.0  T
   3    -42.5577546 -0.156883E-01  0.547E-01    2.38       1.0  T
   4    -42.5592159 -0.146122E-02  0.285E-01    2.05       1.0  T
   5    -42.5603178 -0.110195E-02  0.128E-01    2.19       1.0  T
   6    -42.5606338 -0.315969E-03  0.262E-02    2.19       1.0  T
   7    -42.5606359 -0.216255E-05  0.124E-02    2.19       1.6  T
   8    -42.5606369 -0.972848E-06  0.267E-03    2.19       7.5  T
   9    -42.5606370 -0.107988E-06  0.966E-04    2.19      20.7  T
  10    -42.5606370 -0.232620E-08  0.468E-04    2.19      42.7  T
     SCC iter.                  ...        0 min,  0.014 sec
     gradient                   ...        0 min,  0.012 sec
 * total energy  :   -48.7864553 Eh     change       -0.3848709E+01 Eh
   gradient norm :     4.8103480 Eh/α   predicted    -0.2986590E+01 ( -22.40%)
   displ. norm   :     0.9928020 α      lambda       -0.4757215E+01
   maximum displ.:     0.9823785 α      in ANC's #1, #69, #62, ...

........................................................................
.............................. CYCLE    4 ..............................
........................................................................

 iter      E             dE          RMSdq      gap      omega  full diag
   1    -42.2680591 -0.422681E+02  0.162E+00    1.31       0.0  T
   2    -42.2610149  0.704422E-02  0.131E+00    0.87       1.0  T
   3    -42.2630522 -0.203727E-02  0.806E-01    1.45       1.0  T
   4    -42.2803071 -0.172549E-01  0.258E-01    1.06       1.0  T
   5    -42.2810593 -0.752261E-03  0.105E-01    1.14       1.0  T
   6    -42.2812714 -0.212049E-03  0.399E-02    1.12       1.0  T
   7    -42.2812891 -0.177491E-04  0.186E-02    1.13       1.1  T
   8    -42.2812952 -0.608275E-05  0.764E-03    1.13       2.6  T
   9    -42.2812965 -0.128862E-05  0.329E-03    1.13       6.1  T
  10    -42.2812966 -0.749020E-07  0.168E-03    1.13      11.9  T
  11    -42.2812966 -0.289324E-07  0.483E-04    1.13      41.4  T
  12    -42.2812966 -0.297896E-08  0.260E-04    1.13      77.1  T
     SCC iter.                  ...        0 min,  0.017 sec
     gradient                   ...        0 min,  0.012 sec
 * total energy  :   -54.4705744 Eh     change       -0.5684119E+01 Eh
   gradient norm :     6.7017286 Eh/α   predicted    -0.4723094E+01 ( -16.91%)
   displ. norm   :     0.9910495 α      lambda       -0.6619046E+01
   maximum displ.:     0.9702962 α      in ANC's #1, #69, #62, ...

........................................................................
.............................. CYCLE    5 ..............................
........................................................................

 iter      E             dE          RMSdq      gap      omega  full diag
   1    -42.0992209 -0.420992E+02  0.277E+00    0.02       0.0  T
   2    -41.8270987  0.272122E+00  0.334E+00    0.19       1.0  T
   3    -42.1336264 -0.306528E+00  0.179E+00    0.10       1.0  T
   4    -42.2237923 -0.901659E-01  0.636E-01    0.17       1.0  T
   5    -42.2256071 -0.181477E-02  0.350E-01    0.27       1.0  T
   6    -42.2287267 -0.311964E-02  0.240E-01    0.28       1.0  T
   7    -42.2305657 -0.183905E-02  0.715E-02    0.26       1.0  T
   8    -42.2305782 -0.124766E-04  0.483E-02    0.24       1.0  T
   9    -42.2306389 -0.607131E-04  0.188E-02    0.25       1.1  T
  10    -42.2306520 -0.130953E-04  0.586E-03    0.25       3.4  T
  11    -42.2306523 -0.257438E-06  0.337E-03    0.25       5.9  T
  12    -42.2306527 -0.366644E-06  0.121E-03    0.25      16.5  T
  13    -42.2306526  0.296923E-07  0.109E-03    0.25      18.4  T
  14    -42.2306527 -0.382186E-07  0.265E-04    0.25      75.3  T
  15    -42.2306527 -0.118931E-08  0.131E-04    0.25     152.2  T
     SCC iter.                  ...        0 min,  0.021 sec
     gradient                   ...        0 min,  0.012 sec
 * total energy  :   -58.0751475 Eh     change       -0.3604573E+01 Eh
   gradient norm :    13.3274652 Eh/α   predicted    -0.6560263E+01 (  82.00%)
   displ. norm   :     0.5199110 α      lambda       -0.6674065E+01
   maximum displ.:     0.4192700 α      in ANC's #1, #69, #62, ...

........................................................................
.............................. CYCLE    6 ..............................
........................................................................

 iter      E             dE          RMSdq      gap      omega  full diag
   1    -42.2094608 -0.422095E+02  0.137E+00    0.20       0.0  T
   2    -42.1145441  0.949167E-01  0.220E+00    0.42       1.0  T
   3    -42.2429488 -0.128405E+00  0.822E-01    0.08       1.0  T
   4    -42.2489180 -0.596921E-02  0.752E-01    0.17       1.0  T
   5    -42.2628421 -0.139241E-01  0.286E-01    0.15       1.0  T
   6    -42.2640211 -0.117896E-02  0.162E-01    0.15       1.0  T
   7    -42.2649480 -0.926899E-03  0.392E-02    0.12       1.0  T
   8    -42.2649922 -0.442278E-04  0.171E-02    0.12       1.2  T
   9    -42.2649929 -0.688451E-06  0.118E-02    0.12       1.7  T
  10    -42.2649976 -0.472220E-05  0.196E-03    0.12      10.2  T
  11    -42.2649976 -0.246119E-07  0.135E-03    0.12      14.8  T
  12    -42.2649977 -0.404049E-07  0.317E-04    0.12      63.1  T
  13    -42.2649977 -0.996458E-09  0.179E-04    0.12     112.0  T
     SCC iter.                  ...        0 min,  0.018 sec
     gradient                   ...        0 min,  0.012 sec
 * total energy  :   -57.9497520 Eh     change        0.1253955E+00 Eh
   gradient norm :     6.1651683 Eh/α   predicted    -0.4239062E+01 (*******%)
   displ. norm   :     0.3559261 α      lambda       -0.1162609E+01
   maximum displ.:     0.1508353 α      in ANC's #39, #35, #34, ...

........................................................................
.............................. CYCLE    7 ..............................
........................................................................

 iter      E             dE          RMSdq      gap      omega  full diag
   1    -42.2943716 -0.422944E+02  0.787E-01    0.08       0.0  T
   2    -42.2342800  0.600917E-01  0.147E+00    0.32       1.0  T
   3    -42.3109564 -0.766765E-01  0.375E-01    0.16       1.0  T
   4    -42.3036751  0.728138E-02  0.569E-01    0.05       1.0  T
   5    -42.3107212 -0.704618E-02  0.243E-01    0.17       1.0  T
   6    -42.3124240 -0.170278E-02  0.563E-02    0.13       1.0  T
   7    -42.3125175 -0.934993E-04  0.239E-02    0.13       1.0  T
   8    -42.3125283 -0.107936E-04  0.126E-02    0.13       1.6  T
   9    -42.3125306 -0.231807E-05  0.427E-03    0.14       4.7  T
  10    -42.3125312 -0.611802E-06  0.111E-03    0.14      18.1  T
  11    -42.3125312 -0.101398E-07  0.578E-04    0.14      34.6  T
  12    -42.3125313 -0.260518E-08  0.197E-04    0.14     101.7  T
     SCC iter.                  ...        0 min,  0.017 sec
     gradient                   ...        0 min,  0.012 sec
 * total energy  :   -58.9030127 Eh     change       -0.9532607E+00 Eh
   gradient norm :     4.3393011 Eh/α   predicted    -0.6549467E+00 ( -31.29%)
   displ. norm   :     0.4641384 α      lambda       -0.1714725E+01
   maximum displ.:     0.4119501 α      in ANC's #1, #36, #67, ...

........................................................................
.............................. CYCLE    8 ..............................
........................................................................

 iter      E             dE          RMSdq      gap      omega  full diag
   1    -42.2998972 -0.422999E+02  0.976E-01    0.07       0.0  T
   2    -42.2643785  0.355187E-01  0.122E+00    0.43       1.0  T
   3    -42.3053300 -0.409515E-01  0.640E-01    0.06       1.0  T
   4    -42.3159899 -0.106599E-01  0.209E-01    0.16       1.0  T
   5    -42.3159658  0.241879E-04  0.891E-02    0.16       1.0  T
   6    -42.3160497 -0.839414E-04  0.766E-02    0.19       1.0  T
   7    -42.3162981 -0.248435E-03  0.150E-02    0.18       1.3  T
   8    -42.3163018 -0.370312E-05  0.674E-03    0.18       3.0  T
   9    -42.3163021 -0.279773E-06  0.386E-03    0.18       5.2  T
  10    -42.3163027 -0.535961E-06  0.122E-03    0.18      16.4  T
  11    -42.3163027 -0.311673E-07  0.331E-04    0.18      60.4  T
  12    -42.3163027 -0.637627E-09  0.178E-04    0.18     112.5  T
     SCC iter.                  ...        0 min,  0.017 sec
     gradient                   ...        0 min,  0.012 sec
 * total energy  :   -58.0581838 Eh     change        0.8448288E+00 Eh
   gradient norm :    16.3462078 Eh/α   predicted    -0.1042059E+01 (-223.35%)
   displ. norm   :     0.2659198 α      lambda       -0.3999762E+01
   maximum displ.:     0.1487229 α      in ANC's #1, #39, #69, ...

........................................................................
.............................. CYCLE    9 ..............................
........................................................................

 iter      E             dE          RMSdq      gap      omega  full diag
   1    -42.3063973 -0.423064E+02  0.540E-01    0.19       0.0  T
   2    -42.2795947  0.268026E-01  0.101E+00    0.32       1.0  T
   3    -42.3110185 -0.314238E-01  0.304E-01    0.10       1.0  T
   4    -42.3105174  0.501158E-03  0.342E-01    0.05       1.0  T
   5    -42.3142986 -0.378122E-02  0.851E-02    0.07       1.0  T
   6    -42.3144194 -0.120865E-03  0.262E-02    0.08       1.0  T
   7    -42.3144445 -0.250759E-04  0.764E-03    0.08       2.6  T
   8    -42.3144449 -0.372399E-06  0.520E-03    0.08       3.8  T
   9    -42.3144454 -0.516358E-06  0.142E-03    0.08      14.1  T
  10    -42.3144455 -0.558479E-07  0.523E-04    0.08      38.2  T
  11    -42.3144455 -0.927280E-09  0.268E-04    0.08      74.5  T
     SCC iter.                  ...        0 min,  0.015 sec
     gradient                   ...        0 min,  0.012 sec
 * total energy  :   -59.2927875 Eh     change       -0.1234604E+01 Eh
   gradient norm :     1.9088971 Eh/α   predicted    -0.2141302E+01 (  73.44%)
   displ. norm   :     0.2952265 α      lambda       -0.1443933E+00
   maximum displ.:     0.1171155 α      in ANC's #42, #69, #62, ...

........................................................................
.............................. CYCLE   10 ..............................
........................................................................

 iter      E             dE          RMSdq      gap      omega  full diag
   1    -42.3438059 -0.423438E+02  0.732E-01    0.30       0.0  T
   2    -42.2829401  0.608658E-01  0.125E+00    0.08       1.0  T
   3    -42.3445725 -0.616324E-01  0.563E-01    0.31       1.0  T
   4    -42.3530114 -0.843893E-02  0.183E-01    0.17       1.0  T
   5    -42.3536719 -0.660427E-03  0.473E-02    0.12       1.0  T
   6    -42.3536983 -0.264382E-04  0.272E-02    0.11       1.0  T
   7    -42.3537121 -0.137998E-04  0.167E-02    0.12       1.2  T
   8    -42.3537185 -0.636224E-05  0.585E-03    0.12       3.4  T
   9    -42.3537192 -0.778154E-06  0.279E-03    0.12       7.2  T
  10    -42.3537194 -0.187678E-06  0.890E-04    0.12      22.5  T
  11    -42.3537194 -0.796626E-08  0.383E-04    0.12      52.2  T
     SCC iter.                  ...        0 min,  0.015 sec
     gradient                   ...        0 min,  0.012 sec
 * total energy  :   -59.3735159 Eh     change       -0.8072843E-01 Eh
   gradient norm :     1.1491016 Eh/α   predicted    -0.7848857E-01 (  -2.77%)
   displ. norm   :     0.3187139 α      lambda       -0.1288812E+00
   maximum displ.:     0.1226218 α      in ANC's #34, #35, #30, ...

........................................................................
.............................. CYCLE   11 ..............................
........................................................................

 iter      E             dE          RMSdq      gap      omega  full diag
   1    -42.3765199 -0.423765E+02  0.646E-01    0.07       0.0  T
   2    -42.2077438  0.168776E+00  0.222E+00    1.20       1.0  T
   3    -42.3781894 -0.170446E+00  0.820E-01    0.52       1.0  T
   4    -42.3868059 -0.861645E-02  0.599E-01    0.41       1.0  T
   5    -42.3967140 -0.990812E-02  0.884E-02    0.23       1.0  T
   6    -42.3967189 -0.489364E-05  0.633E-02    0.23       1.0  T
   7    -42.3968190 -0.100098E-03  0.286E-02    0.22       1.0  T
   8    -42.3968223 -0.334681E-05  0.178E-02    0.22       1.1  T
   9    -42.3968330 -0.106540E-04  0.403E-03    0.22       5.0  T
  10    -42.3968330 -0.488701E-07  0.250E-03    0.22       8.0  T
  11    -42.3968332 -0.208931E-06  0.332E-04    0.22      60.2  T
  12    -42.3968332 -0.196062E-08  0.138E-04    0.22     145.0  T
     SCC iter.                  ...        0 min,  0.017 sec
     gradient                   ...        0 min,  0.012 sec
 * total energy  :   -59.4549442 Eh     change       -0.8142828E-01 Eh
   gradient norm :     0.4260666 Eh/α   predicted    -0.7098649E-01 ( -12.82%)
   displ. norm   :     0.4109096 α      lambda       -0.9761107E-01
   maximum displ.:     0.1788386 α      in ANC's #42, #40, #34, ...

........................................................................
.............................. CYCLE   12 ..............................
........................................................................

 iter      E             dE          RMSdq      gap      omega  full diag
   1    -42.4705192 -0.424705E+02  0.686E-01    0.41       0.0  T
   2    -42.4763585 -0.583928E-02  0.506E-01    0.52       1.0  T
   3    -42.4749928  0.136568E-02  0.288E-01    0.33       1.0  T
   4    -42.4541748  0.208180E-01  0.846E-01    0.82       1.0  T
   5    -42.4775284 -0.233536E-01  0.204E-01    0.54       1.0  T
   6    -42.4784590 -0.930604E-03  0.788E-02    0.49       1.0  T
   7    -42.4786579 -0.198847E-03  0.200E-02    0.47       1.0  T
   8    -42.4786619 -0.405510E-05  0.115E-02    0.47       1.7  T
   9    -42.4786655 -0.360251E-05  0.235E-03    0.46       8.5  T
  10    -42.4786655 -0.188820E-07  0.103E-03    0.46      19.5  T
  11    -42.4786656 -0.139410E-07  0.392E-04    0.46      51.0  T
  12    -42.4786656 -0.137259E-08  0.197E-04    0.46     101.6  T
     SCC iter.                  ...        0 min,  0.017 sec
     gradient                   ...        0 min,  0.012 sec
 * total energy  :   -59.5320474 Eh     change       -0.7710318E-01 Eh
   gradient norm :     0.4207070 Eh/α   predicted    -0.5704700E-01 ( -26.01%)
   displ. norm   :     0.3804671 α      lambda       -0.5046571E-01
   maximum displ.:     0.1346666 α      in ANC's #42, #34, #40, ...

........................................................................
.............................. CYCLE   13 ..............................
........................................................................

 iter      E             dE          RMSdq      gap      omega  full diag
   1    -42.5264514 -0.425265E+02  0.652E-01    0.67       0.0  T
   2    -42.5275266 -0.107522E-02  0.427E-01    0.44       1.0  T
   3    -42.5093635  0.181631E-01  0.871E-01    0.99       1.0  T
   4    -42.5304558 -0.210923E-01  0.416E-01    0.75       1.0  T
   5    -42.5328933 -0.243748E-02  0.250E-01    0.70       1.0  T
   6    -42.5345701 -0.167679E-02  0.500E-02    0.62       1.0  T
   7    -42.5346273 -0.572178E-04  0.205E-02    0.62       1.0  T
   8    -42.5346342 -0.688793E-05  0.789E-03    0.61       2.5  T
   9    -42.5346359 -0.172663E-05  0.198E-03    0.61      10.1  T
  10    -42.5346359 -0.169875E-07  0.797E-04    0.61      25.1  T
  11    -42.5346359  0.166671E-08  0.483E-04    0.61      41.4  T
     SCC iter.                  ...        0 min,  0.015 sec
     gradient                   ...        0 min,  0.012 sec
 * total energy  :   -59.5514264 Eh     change       -0.1937901E-01 Eh
   gradient norm :     0.7658920 Eh/α   predicted    -0.2888537E-01 (  49.05%)
   displ. norm   :     0.1142988 α      lambda       -0.3830586E-01
   maximum displ.:     0.0427332 α      in ANC's #27, #1, #39, ...

........................................................................
.............................. CYCLE   14 ..............................
........................................................................

 iter      E             dE          RMSdq      gap      omega  full diag
   1    -42.5317759 -0.425318E+02  0.239E-01    0.72       0.0  T
   2    -42.5179607  0.138152E-01  0.589E-01    0.36       1.0  T
   3    -42.5325095 -0.145488E-01  0.147E-01    0.69       1.0  T
   4    -42.5330416 -0.532054E-03  0.514E-02    0.65       1.0  T
   5    -42.5330785 -0.368643E-04  0.697E-03    0.64       2.9  T
   6    -42.5330789 -0.386397E-06  0.454E-03    0.64       4.4  T
   7    -42.5330790 -0.183161E-06  0.255E-03    0.64       7.8  T
   8    -42.5330791 -0.713913E-07  0.916E-04    0.64      21.8  T
   9    -42.5330791 -0.145271E-07  0.371E-04    0.64      53.9  T
     SCC iter.                  ...        0 min,  0.013 sec
     gradient                   ...        0 min,  0.012 sec
 * total energy  :   -59.5692981 Eh     change       -0.1787168E-01 Eh
   gradient norm :     0.5442221 Eh/α   predicted    -0.1940300E-01 (   8.57%)
   displ. norm   :     0.2040596 α      lambda       -0.3739848E-01
   maximum displ.:     0.0783120 α      in ANC's #27, #30, #52, ...

........................................................................
.............................. CYCLE   15 ..............................
........................................................................

 iter      E             dE          RMSdq      gap      omega  full diag
   1    -42.5327610 -0.425328E+02  0.431E-01    0.85       0.0  T
   2    -42.4759428  0.568182E-01  0.122E+00    0.13       1.0  T
   3    -42.5381466 -0.622038E-01  0.186E-01    0.74       1.0  T
   4    -42.5386924 -0.545765E-03  0.875E-02    0.70       1.0  T
   5    -42.5387227 -0.303576E-04  0.283E-02    0.68       1.0  T
   6    -42.5387422 -0.195023E-04  0.873E-03    0.68       2.3  T
   7    -42.5387432 -0.997055E-06  0.493E-03    0.68       4.1  T
   8    -42.5387434 -0.221110E-06  0.211E-03    0.68       9.5  T
   9    -42.5387435 -0.583142E-07  0.774E-04    0.68      25.8  T
  10    -42.5387435 -0.478970E-08  0.378E-04    0.68      52.9  T
     SCC iter.                  ...        0 min,  0.014 sec
     gradient                   ...        0 min,  0.011 sec
 * total energy  :   -59.5969699 Eh     change       -0.2767185E-01 Eh
   gradient norm :     0.1137127 Eh/α   predicted    -0.1947803E-01 ( -29.61%)
   displ. norm   :     0.4500979 α      lambda       -0.3812447E-01
   maximum displ.:     0.1434051 α      in ANC's #27, #13, #30, ...

........................................................................
.............................. CYCLE   16 ..............................
........................................................................

 iter      E             dE          RMSdq      gap      omega  full diag
   1    -42.5442966 -0.425443E+02  0.900E-01    1.21       0.0  T
   2    -42.3860115  0.158285E+00  0.201E+00    0.09       1.0  T
   3    -42.5517800 -0.165769E+00  0.608E-01    1.13       1.0  T
   4    -42.5613653 -0.958529E-02  0.237E-01    0.94       1.0  T
   5    -42.5625656 -0.120030E-02  0.332E-02    0.86       1.0  T
   6    -42.5625881 -0.224673E-04  0.128E-02    0.85       1.6  T
   7    -42.5625886 -0.548569E-06  0.685E-03    0.85       2.9  T
   8    -42.5625892 -0.583512E-06  0.310E-03    0.85       6.4  T
   9    -42.5625895 -0.271517E-06  0.120E-03    0.85      16.7  T
  10    -42.5625895 -0.850366E-08  0.632E-04    0.85      31.6  T
  11    -42.5625895 -0.537641E-08  0.209E-04    0.85      95.6  T
     SCC iter.                  ...        0 min,  0.015 sec
     gradient                   ...        0 min,  0.012 sec
 * total energy  :   -59.6154213 Eh     change       -0.1845133E-01 Eh
   gradient norm :     0.8514734 Eh/α   predicted    -0.2292393E-01 (  24.24%)
   displ. norm   :     0.2247401 α      lambda       -0.2846720E-01
   maximum displ.:     0.0733807 α      in ANC's #13, #27, #34, ...

........................................................................
.............................. CYCLE   17 ..............................
........................................................................

 iter      E             dE          RMSdq      gap      omega  full diag
   1    -42.5670829 -0.425671E+02  0.425E-01    1.09       0.0  T
   2    -42.5440593  0.230237E-01  0.768E-01    0.57       1.0  T
   3    -42.5666416 -0.225823E-01  0.349E-01    1.11       1.0  T
   4    -42.5697386 -0.309704E-02  0.154E-01    1.00       1.0  T
   5    -42.5702279 -0.489307E-03  0.241E-02    0.96       1.0  T
   6    -42.5702442 -0.162215E-04  0.678E-03    0.95       2.9  T
   7    -42.5702447 -0.487314E-06  0.304E-03    0.95       6.6  T
   8    -42.5702447 -0.902619E-07  0.146E-03    0.95      13.7  T
   9    -42.5702448 -0.544520E-07  0.497E-04    0.95      40.2  T
  10    -42.5702448 -0.114346E-08  0.256E-04    0.95      78.2  T
     SCC iter.                  ...        0 min,  0.014 sec
     gradient                   ...        0 min,  0.011 sec
 * total energy  :   -59.6339180 Eh     change       -0.1849673E-01 Eh
   gradient norm :     0.1286252 Eh/α   predicted    -0.1495269E-01 ( -19.16%)
   displ. norm   :     0.3517894 α      lambda       -0.1615579E-01
   maximum displ.:     0.1109293 α      in ANC's #13, #27, #34, ...

........................................................................
.............................. CYCLE   18 ..............................
........................................................................

 iter      E             dE          RMSdq      gap      omega  full diag
   1    -42.5786824 -0.425787E+02  0.553E-01    1.29       0.0  T
   2    -42.5430052  0.356771E-01  0.979E-01    0.59       1.0  T
   3    -42.5801745 -0.371693E-01  0.384E-01    1.27       1.0  T
   4    -42.5837383 -0.356373E-02  0.142E-01    1.13       1.0  T
   5    -42.5840845 -0.346278E-03  0.284E-02    1.10       1.0  T
   6    -42.5841068 -0.222396E-04  0.986E-03    1.09       2.0  T
   7    -42.5841082 -0.141279E-05  0.391E-03    1.09       5.1  T
   8    -42.5841083 -0.120353E-06  0.154E-03    1.09      13.0  T
   9    -42.5841084 -0.503924E-07  0.645E-04    1.09      31.0  T
  10    -42.5841084 -0.398938E-08  0.292E-04    1.09      68.6  T
     SCC iter.                  ...        0 min,  0.014 sec
     gradient                   ...        0 min,  0.011 sec
 * total energy  :   -59.6465729 Eh     change       -0.1265496E-01 Eh
   gradient norm :     0.1269690 Eh/α   predicted    -0.9077426E-02 ( -28.27%)
   displ. norm   :     0.4133562 α      lambda       -0.1796339E-01
   maximum displ.:     0.1221691 α      in ANC's #13, #41, #27, ...

........................................................................
.............................. CYCLE   19 ..............................
........................................................................

 iter      E             dE          RMSdq      gap      omega  full diag
   1    -42.5949851 -0.425950E+02  0.447E-01    1.32       0.0  T
   2    -42.5836852  0.112999E-01  0.586E-01    0.89       1.0  T
   3    -42.5946423 -0.109572E-01  0.335E-01    1.35       1.0  T
   4    -42.5972259 -0.258353E-02  0.764E-02    1.20       1.0  T
   5    -42.5973047 -0.788060E-04  0.254E-02    1.20       1.0  T
   6    -42.5973178 -0.131663E-04  0.950E-03    1.20       2.1  T
   7    -42.5973193 -0.147401E-05  0.441E-03    1.20       4.5  T
   8    -42.5973196 -0.249544E-06  0.106E-03    1.19      18.9  T
   9    -42.5973196 -0.191031E-07  0.477E-04    1.19      42.0  T
  10    -42.5973196 -0.123057E-08  0.237E-04    1.19      84.5  T
     SCC iter.                  ...        0 min,  0.014 sec
     gradient                   ...        0 min,  0.011 sec
 * total energy  :   -59.6600701 Eh     change       -0.1349712E-01 Eh
   gradient norm :     0.0789410 Eh/α   predicted    -0.1051650E-01 ( -22.08%)
   displ. norm   :     0.3333553 α      lambda       -0.1193663E-01
   maximum displ.:     0.1002037 α      in ANC's #41, #51, #52, ...

........................................................................
.............................. CYCLE   20 ..............................
........................................................................

 iter      E             dE          RMSdq      gap      omega  full diag
   1    -42.6015836 -0.426016E+02  0.286E-01    1.26       0.0  T
   2    -42.6009935  0.590099E-03  0.223E-01    1.15       1.0  T
   3    -42.6007015  0.291998E-03  0.231E-01    1.34       1.0  T
   4    -42.6018730 -0.117145E-02  0.792E-02    1.20       1.0  T
   5    -42.6020527 -0.179696E-03  0.274E-02    1.24       1.0  T
   6    -42.6020685 -0.158240E-04  0.821E-03    1.23       2.4  T
   7    -42.6020696 -0.105769E-05  0.411E-03    1.23       4.9  T
   8    -42.6020699 -0.295766E-06  0.755E-04    1.23      26.5  T
   9    -42.6020699 -0.112530E-07  0.348E-04    1.23      57.4  T
     SCC iter.                  ...        0 min,  0.013 sec
     gradient                   ...        0 min,  0.011 sec
 * total energy  :   -59.6680941 Eh     change       -0.8023991E-02 Eh
   gradient norm :     0.0739648 Eh/α   predicted    -0.6631690E-02 ( -17.35%)
   displ. norm   :     0.1705879 α      lambda       -0.5476750E-02
   maximum displ.:     0.0529210 α      in ANC's #41, #51, #62, ...
 * RMSD in coord.:     1.0776266 α      energy gain  -0.1691758E+02 Eh

generating ANC from model Hessian ...
Using Lindh-Hessian (1995)
 Shifting diagonal of input Hessian by    8.2584754833058167E-003
 Lowest  eigenvalues of input Hessian
    0.000000    0.000000    0.000000    0.000000    0.000000    0.000000
    0.010000    0.011483    0.012270    0.013270    0.015053    0.017535
    0.018192    0.020669    0.022364    0.025591    0.027150    0.031324
 Highest eigenvalues
    2.108666    2.229332    2.354845    2.459670   16.183779   22.667552


........................................................................
.............................. CYCLE   21 ..............................
........................................................................

 iter      E             dE          RMSdq      gap      omega  full diag
   1    -42.6046602 -0.426047E+02  0.162E-01    1.24       0.0  T
   2    -42.6046912 -0.309912E-04  0.100E-01    1.21       1.0  T
   3    -42.6044774  0.213707E-03  0.109E-01    1.29       1.0  T
   4    -42.6046685 -0.191007E-03  0.575E-02    1.21       1.0  T
   5    -42.6047815 -0.113095E-03  0.193E-02    1.24       1.0  T
   6    -42.6047916 -0.100045E-04  0.444E-03    1.24       4.5  T
   7    -42.6047918 -0.260685E-06  0.207E-03    1.24       9.7  T
   8    -42.6047919 -0.511137E-07  0.668E-04    1.24      30.0  T
   9    -42.6047919 -0.702815E-08  0.245E-04    1.24      81.6  T
     SCC iter.                  ...        0 min,  0.013 sec
     gradient                   ...        0 min,  0.011 sec
 * total energy  :   -59.6722792 Eh     change       -0.4185163E-02 Eh
   gradient norm :     0.0780369 Eh/α   predicted     0.0000000E+00 (-100.00%)
   displ. norm   :     0.4880320 α      lambda       -0.2052142E-01
   maximum displ.:     0.2749224 α      in ANC's #17, #16, #15, ...

........................................................................
.............................. CYCLE   22 ..............................
........................................................................

 iter      E             dE          RMSdq      gap      omega  full diag
   1    -42.6264549 -0.426265E+02  0.542E-01    1.39       0.0  T
   2    -42.6283710 -0.191614E-02  0.320E-01    1.29       1.0  T
   3    -42.6287947 -0.423712E-03  0.217E-01    1.41       1.0  T
   4    -42.6276770  0.111770E-02  0.223E-01    1.22       1.0  T
   5    -42.6293297 -0.165270E-02  0.545E-02    1.37       1.0  T
   6    -42.6294195 -0.897140E-04  0.822E-03    1.34       2.4  T
   7    -42.6294204 -0.940831E-06  0.380E-03    1.34       5.3  T
   8    -42.6294204 -0.208264E-07  0.168E-03    1.34      11.9  T
   9    -42.6294205 -0.363722E-07  0.642E-04    1.34      31.1  T
  10    -42.6294205 -0.136449E-08  0.316E-04    1.34      63.2  T
     SCC iter.                  ...        0 min,  0.014 sec
     gradient                   ...        0 min,  0.011 sec
 * total energy  :   -59.6803977 Eh     change       -0.8118512E-02 Eh
   gradient norm :     0.9204594 Eh/α   predicted    -0.1273027E-01 (  56.81%)
   displ. norm   :     0.6695268 α      lambda       -0.5200938E-01
   maximum displ.:     0.3890399 α      in ANC's #17, #16, #15, ...

........................................................................
.............................. CYCLE   23 ..............................
........................................................................

 iter      E             dE          RMSdq      gap      omega  full diag
   1    -42.6407830 -0.426408E+02  0.874E-01    1.57       0.0  T
   2    -42.6488638 -0.808081E-02  0.545E-01    1.52       1.0  T
   3    -42.6515818 -0.271807E-02  0.268E-01    1.52       1.0  T
   4    -42.6513679  0.213933E-03  0.127E-01    1.53       1.0  T
   5    -42.6517239 -0.356002E-03  0.199E-02    1.53       1.0  T
   6    -42.6517277 -0.381185E-05  0.127E-02    1.51       1.6  T
   7    -42.6517314 -0.372859E-05  0.699E-03    1.52       2.9  T
   8    -42.6517323 -0.891260E-06  0.245E-03    1.52       8.2  T
   9    -42.6517324 -0.424898E-07  0.938E-04    1.52      21.3  T
  10    -42.6517324 -0.881551E-08  0.380E-04    1.52      52.7  T
     SCC iter.                  ...        0 min,  0.014 sec
     gradient                   ...        0 min,  0.012 sec
 * total energy  :   -59.6939000 Eh     change       -0.1350223E-01 Eh
   gradient norm :     0.5179422 Eh/α   predicted    -0.3766171E-01 ( 178.93%)
   displ. norm   :     0.4720200 α      lambda       -0.2787102E-01
   maximum displ.:     0.2268465 α      in ANC's #14, #10, #16, ...

........................................................................
.............................. CYCLE   24 ..............................
........................................................................

 iter      E             dE          RMSdq      gap      omega  full diag
   1    -42.6713951 -0.426714E+02  0.379E-01    1.55       0.0  T
   2    -42.6719245 -0.529454E-03  0.241E-01    1.70       1.0  T
   3    -42.6720174 -0.928489E-04  0.154E-01    1.54       1.0  T
   4    -42.6721516 -0.134225E-03  0.115E-01    1.67       1.0  T
   5    -42.6724675 -0.315936E-03  0.195E-02    1.61       1.0  T
   6    -42.6724753 -0.782792E-05  0.833E-03    1.61       2.4  T
   7    -42.6724757 -0.387886E-06  0.336E-03    1.61       6.0  T
   8    -42.6724758 -0.911984E-07  0.977E-04    1.61      20.5  T
   9    -42.6724758 -0.497962E-08  0.535E-04    1.61      37.4  T
     SCC iter.                  ...        0 min,  0.013 sec
     gradient                   ...        0 min,  0.012 sec
 * total energy  :   -59.7141148 Eh     change       -0.2021485E-01 Eh
   gradient norm :     0.0630491 Eh/α   predicted    -0.1704038E-01 ( -15.70%)
   displ. norm   :     0.6484188 α      lambda       -0.1777706E-01
   maximum displ.:     0.2738938 α      in ANC's #16, #12, #14, ...

........................................................................
.............................. CYCLE   25 ..............................
........................................................................

 iter      E             dE          RMSdq      gap      omega  full diag
   1    -42.6712654 -0.426713E+02  0.649E-01    1.68       0.0  T
   2    -42.6753173 -0.405191E-02  0.417E-01    1.81       1.0  T
   3    -42.6761924 -0.875039E-03  0.214E-01    1.73       1.0  T
   4    -42.6756424  0.549970E-03  0.185E-01    1.84       1.0  T
   5    -42.6764445 -0.802087E-03  0.243E-02    1.76       1.0  T
   6    -42.6764533 -0.878462E-05  0.121E-02    1.77       1.7  T
   7    -42.6764540 -0.698302E-06  0.495E-03    1.76       4.0  T
   8    -42.6764543 -0.336024E-06  0.129E-03    1.76      15.5  T
   9    -42.6764543 -0.191346E-07  0.685E-04    1.76      29.2  T
  10    -42.6764543 -0.157444E-08  0.293E-04    1.76      68.3  T
     SCC iter.                  ...        0 min,  0.014 sec
     gradient                   ...        0 min,  0.012 sec
 * total energy  :   -59.7222580 Eh     change       -0.8143166E-02 Eh
   gradient norm :     0.3410666 Eh/α   predicted    -0.1262573E-01 (  55.05%)
   displ. norm   :     0.4775849 α      lambda       -0.1308990E-01
   maximum displ.:     0.2440360 α      in ANC's #17, #9, #5, ...

........................................................................
.............................. CYCLE   26 ..............................
........................................................................

 iter      E             dE          RMSdq      gap      omega  full diag
   1    -42.6842744 -0.426843E+02  0.458E-01    1.63       0.0  T
   2    -42.6862187 -0.194432E-02  0.352E-01    1.95       1.0  T
   3    -42.6877757 -0.155701E-02  0.192E-01    1.75       1.0  T
   4    -42.6876974  0.783005E-04  0.133E-01    1.84       1.0  T
   5    -42.6880208 -0.323396E-03  0.253E-02    1.80       1.0  T
   6    -42.6880343 -0.134851E-04  0.797E-03    1.79       2.5  T
   7    -42.6880343 -0.234036E-07  0.455E-03    1.80       4.4  T
   8    -42.6880345 -0.210423E-06  0.188E-03    1.80      10.6  T
   9    -42.6880346 -0.623657E-07  0.670E-04    1.79      29.9  T
  10    -42.6880346 -0.275287E-08  0.302E-04    1.79      66.3  T
     SCC iter.                  ...        0 min,  0.014 sec
     gradient                   ...        0 min,  0.012 sec
 * total energy  :   -59.7209662 Eh     change        0.1291744E-02 Eh
   gradient norm :     0.1826955 Eh/α   predicted    -0.8037814E-02 (-722.25%)
   displ. norm   :     0.3022836 α      lambda       -0.1386653E-01
   maximum displ.:     0.1531956 α      in ANC's #14, #8, #9, ...

........................................................................
.............................. CYCLE   27 ..............................
........................................................................

 iter      E             dE          RMSdq      gap      omega  full diag
   1    -42.6811079 -0.426811E+02  0.267E-01    1.91       0.0  T
   2    -42.6811921 -0.841384E-04  0.205E-01    1.74       1.0  T
   3    -42.6814056 -0.213560E-03  0.134E-01    1.88       1.0  T
   4    -42.6815990 -0.193361E-03  0.476E-02    1.82       1.0  T
   5    -42.6816473 -0.483464E-04  0.121E-02    1.83       1.6  T
   6    -42.6816487 -0.140885E-05  0.697E-03    1.83       2.9  T
   7    -42.6816490 -0.226075E-06  0.205E-03    1.83       9.8  T
   8    -42.6816490 -0.428591E-07  0.893E-04    1.83      22.4  T
   9    -42.6816490 -0.186476E-08  0.432E-04    1.83      46.3  T
     SCC iter.                  ...        0 min,  0.013 sec
     gradient                   ...        0 min,  0.012 sec
 * total energy  :   -59.7281137 Eh     change       -0.7147418E-02 Eh
   gradient norm :     0.0279215 Eh/α   predicted    -0.7566804E-02 (   5.87%)
   displ. norm   :     0.3587644 α      lambda       -0.4033079E-02
   maximum displ.:     0.1606772 α      in ANC's #6, #17, #12, ...

........................................................................
.............................. CYCLE   28 ..............................
........................................................................

 iter      E             dE          RMSdq      gap      omega  full diag
   1    -42.6815640 -0.426816E+02  0.312E-01    1.89       0.0  T
   2    -42.6821587 -0.594645E-03  0.192E-01    1.92       1.0  T
   3    -42.6822455 -0.867905E-04  0.991E-02    1.90       1.0  T
   4    -42.6822466 -0.113273E-05  0.314E-02    1.92       1.0  T
   5    -42.6822663 -0.196635E-04  0.882E-03    1.91       2.3  T
   6    -42.6822677 -0.147696E-05  0.468E-03    1.91       4.3  T
   7    -42.6822679 -0.157689E-06  0.176E-03    1.91      11.4  T
   8    -42.6822680 -0.588151E-07  0.434E-04    1.91      46.1  T
   9    -42.6822680 -0.170457E-08  0.225E-04    1.91      89.0  T
     SCC iter.                  ...        0 min,  0.013 sec
     gradient                   ...        0 min,  0.012 sec
 * total energy  :   -59.7288245 Eh     change       -0.7108736E-03 Eh
   gradient norm :     0.0777252 Eh/α   predicted    -0.2276097E-02 ( 220.18%)
   displ. norm   :     0.2260679 α      lambda       -0.3246719E-02
   maximum displ.:     0.0945311 α      in ANC's #2, #1, #28, ...

........................................................................
.............................. CYCLE   29 ..............................
........................................................................

 iter      E             dE          RMSdq      gap      omega  full diag
   1    -42.6826922 -0.426827E+02  0.187E-01    1.92       0.0  T
   2    -42.6828312 -0.139057E-03  0.112E-01    1.94       1.0  T
   3    -42.6828564 -0.251813E-04  0.624E-02    1.92       1.0  T
   4    -42.6828725 -0.160573E-04  0.156E-02    1.93       1.3  T
   5    -42.6828784 -0.589219E-05  0.491E-03    1.93       4.1  T
   6    -42.6828787 -0.332910E-06  0.259E-03    1.93       7.7  T
   7    -42.6828787 -0.365640E-07  0.138E-03    1.93      14.5  T
   8    -42.6828788 -0.282753E-07  0.297E-04    1.93      67.2  T
   9    -42.6828788 -0.584883E-09  0.176E-04    1.93     113.5  T
     SCC iter.                  ...        0 min,  0.013 sec
     gradient                   ...        0 min,  0.011 sec
 * total energy  :   -59.7303987 Eh     change       -0.1574195E-02 Eh
   gradient norm :     0.0340128 Eh/α   predicted    -0.1706334E-02 (   8.39%)
   displ. norm   :     0.2395057 α      lambda       -0.1778381E-02
   maximum displ.:     0.0986876 α      in ANC's #1, #8, #4, ...

........................................................................
.............................. CYCLE   30 ..............................
........................................................................

 iter      E             dE          RMSdq      gap      omega  full diag
   1    -42.6834961 -0.426835E+02  0.208E-01    1.94       0.0  T
   2    -42.6840445 -0.548362E-03  0.123E-01    1.95       1.0  T
   3    -42.6841327 -0.882248E-04  0.627E-02    1.95       1.0  T
   4    -42.6841242  0.850549E-05  0.264E-02    1.95       1.0  T
   5    -42.6841381 -0.139600E-04  0.476E-03    1.95       4.2  T
   6    -42.6841384 -0.247861E-06  0.215E-03    1.95       9.3  T
   7    -42.6841384 -0.686121E-09  0.978E-04    1.95      20.5  T
   8    -42.6841384 -0.178490E-07  0.471E-04    1.95      42.5  T
     SCC iter.                  ...        0 min,  0.011 sec
     gradient                   ...        0 min,  0.011 sec
 * total energy  :   -59.7309423 Eh     change       -0.5435304E-03 Eh
   gradient norm :     0.0223358 Eh/α   predicted    -0.9402076E-03 (  72.98%)
   displ. norm   :     0.1584916 α      lambda       -0.9197033E-03
   maximum displ.:     0.0946286 α      in ANC's #1, #2, #4, ...

........................................................................
.............................. CYCLE   31 ..............................
........................................................................

 iter      E             dE          RMSdq      gap      omega  full diag
   1    -42.6876110 -0.426876E+02  0.834E-02    1.97       0.0  T
   2    -42.6876761 -0.650719E-04  0.541E-02    1.99       1.0  T
   3    -42.6876872 -0.110932E-04  0.278E-02    1.98       1.0  T
   4    -42.6876815  0.563510E-05  0.180E-02    1.99       1.1  T
   5    -42.6876891 -0.758669E-05  0.313E-03    1.98       6.4  T
   6    -42.6876893 -0.183079E-06  0.116E-03    1.98      17.3  T
   7    -42.6876893 -0.293294E-08  0.366E-04    1.98      54.7  T
   8    -42.6876893 -0.120407E-08  0.998E-05    1.98     200.4  T
     SCC iter.                  ...        0 min,  0.011 sec
     gradient                   ...        0 min,  0.011 sec
 * total energy  :   -59.7316073 Eh     change       -0.6649969E-03 Eh
   gradient norm :     0.0171926 Eh/α   predicted    -0.4714109E-03 ( -29.11%)
   displ. norm   :     0.2435783 α      lambda       -0.6070643E-03
   maximum displ.:     0.1680229 α      in ANC's #1, #4, #2, ...

........................................................................
.............................. CYCLE   32 ..............................
........................................................................

 iter      E             dE          RMSdq      gap      omega  full diag
   1    -42.6897734 -0.426898E+02  0.899E-02    2.00       0.0  T
   2    -42.6898251 -0.517366E-04  0.584E-02    2.03       1.0  T
   3    -42.6898357 -0.106152E-04  0.305E-02    2.01       1.0  T
   4    -42.6898326  0.314399E-05  0.196E-02    2.02       1.0  T
   5    -42.6898412 -0.855192E-05  0.304E-03    2.02       6.6  T
   6    -42.6898413 -0.197680E-06  0.129E-03    2.02      15.5  T
   7    -42.6898414 -0.698211E-08  0.425E-04    2.02      47.1  T
   8    -42.6898414 -0.290292E-08  0.149E-04    2.02     134.2  T
     SCC iter.                  ...        0 min,  0.011 sec
     gradient                   ...        0 min,  0.011 sec
 * total energy  :   -59.7320203 Eh     change       -0.4130162E-03 Eh
   gradient norm :     0.0158791 Eh/α   predicted    -0.3215459E-03 ( -22.15%)
   displ. norm   :     0.2448220 α      lambda       -0.4040271E-03
   maximum displ.:     0.1849772 α      in ANC's #1, #3, #4, ...

........................................................................
.............................. CYCLE   33 ..............................
........................................................................

 iter      E             dE          RMSdq      gap      omega  full diag
   1    -42.6922786 -0.426923E+02  0.711E-02    2.03       0.0  T
   2    -42.6922974 -0.188354E-04  0.439E-02    2.05       1.0  T
   3    -42.6922974 -0.395743E-07  0.252E-02    2.03       1.0  T
   4    -42.6923029 -0.547794E-05  0.128E-02    2.04       1.6  T
   5    -42.6923064 -0.352067E-05  0.217E-03    2.04       9.2  T
   6    -42.6923065 -0.863532E-07  0.102E-03    2.04      19.7  T
   7    -42.6923065 -0.369443E-08  0.401E-04    2.04      49.8  T
   8    -42.6923065 -0.272294E-08  0.129E-04    2.04     154.8  T
     SCC iter.                  ...        0 min,  0.011 sec
     gradient                   ...        0 min,  0.011 sec
 * total energy  :   -59.7323461 Eh     change       -0.3258501E-03 Eh
   gradient norm :     0.0254387 Eh/α   predicted    -0.2141228E-03 ( -34.29%)
   displ. norm   :     0.3839204 α      lambda       -0.6346938E-03
   maximum displ.:     0.2903718 α      in ANC's #1, #3, #4, ...

........................................................................
.............................. CYCLE   34 ..............................
........................................................................

 iter      E             dE          RMSdq      gap      omega  full diag
   1    -42.6925229 -0.426925E+02  0.115E-01    2.04       0.0  T
   2    -42.6925574 -0.344898E-04  0.701E-02    2.08       1.0  T
   3    -42.6925381  0.192959E-04  0.439E-02    2.04       1.0  T
   4    -42.6925720 -0.339538E-04  0.180E-02    2.06       1.1  T
   5    -42.6925784 -0.641307E-05  0.298E-03    2.06       6.7  T
   6    -42.6925786 -0.143948E-06  0.152E-03    2.06      13.1  T
   7    -42.6925786 -0.797067E-08  0.549E-04    2.06      36.4  T
   8    -42.6925786 -0.531919E-08  0.186E-04    2.06     107.4  T
     SCC iter.                  ...        0 min,  0.011 sec
     gradient                   ...        0 min,  0.011 sec
 * total energy  :   -59.7328644 Eh     change       -0.5182780E-03 Eh
   gradient norm :     0.0272168 Eh/α   predicted    -0.3641246E-03 ( -29.74%)
   displ. norm   :     0.4977876 α      lambda       -0.8249304E-03
   maximum displ.:     0.3727350 α      in ANC's #1, #3, #7, ...

........................................................................
.............................. CYCLE   35 ..............................
........................................................................

 iter      E             dE          RMSdq      gap      omega  full diag
   1    -42.6929720 -0.426930E+02  0.162E-01    2.06       0.0  T
   2    -42.6930164 -0.444156E-04  0.979E-02    2.10       1.0  T
   3    -42.6929372  0.791980E-04  0.691E-02    2.05       1.0  T
   4    -42.6930516 -0.114411E-03  0.186E-02    2.08       1.1  T
   5    -42.6930578 -0.623326E-05  0.372E-03    2.08       5.4  T
   6    -42.6930580 -0.175387E-06  0.199E-03    2.08      10.1  T
   7    -42.6930580 -0.156156E-07  0.698E-04    2.08      28.6  T
   8    -42.6930580 -0.650737E-08  0.267E-04    2.08      74.8  T
     SCC iter.                  ...        0 min,  0.011 sec
     gradient                   ...        0 min,  0.012 sec
 * total energy  :   -59.7335067 Eh     change       -0.6422640E-03 Eh
   gradient norm :     0.0571540 Eh/α   predicted    -0.5146713E-03 ( -19.87%)
   displ. norm   :     0.4532241 α      lambda       -0.8106818E-03
   maximum displ.:     0.3237634 α      in ANC's #1, #3, #9, ...

........................................................................
.............................. CYCLE   36 ..............................
........................................................................

 iter      E             dE          RMSdq      gap      omega  full diag
   1    -42.6916907 -0.426917E+02  0.164E-01    2.07       0.0  T
   2    -42.6917452 -0.544885E-04  0.988E-02    2.11       1.0  T
   3    -42.6916719  0.732340E-04  0.709E-02    2.07       1.0  T
   4    -42.6917829 -0.110965E-03  0.202E-02    2.09       1.0  T
   5    -42.6917902 -0.732890E-05  0.360E-03    2.09       5.6  T
   6    -42.6917904 -0.163223E-06  0.200E-03    2.09      10.0  T
   7    -42.6917904 -0.169595E-07  0.728E-04    2.09      27.5  T
   8    -42.6917904 -0.560957E-08  0.279E-04    2.09      71.7  T
     SCC iter.                  ...        0 min,  0.011 sec
     gradient                   ...        0 min,  0.012 sec
 * total energy  :   -59.7341149 Eh     change       -0.6081958E-03 Eh
   gradient norm :     0.0582677 Eh/α   predicted    -0.4886055E-03 ( -19.66%)
   displ. norm   :     0.3321458 α      lambda       -0.7083561E-03
   maximum displ.:     0.1884130 α      in ANC's #1, #3, #9, ...

........................................................................
.............................. CYCLE   37 ..............................
........................................................................

 iter      E             dE          RMSdq      gap      omega  full diag
   1    -42.6918407 -0.426918E+02  0.140E-01    2.08       0.0  T
   2    -42.6918690 -0.282963E-04  0.850E-02    2.11       1.0  T
   3    -42.6918109  0.581509E-04  0.621E-02    2.07       1.0  T
   4    -42.6918965 -0.856762E-04  0.150E-02    2.10       1.3  T
   5    -42.6919008 -0.428242E-05  0.309E-03    2.09       6.5  T
   6    -42.6919009 -0.106029E-06  0.176E-03    2.10      11.4  T
   7    -42.6919009 -0.153521E-07  0.628E-04    2.09      31.8  T
   8    -42.6919009 -0.362174E-08  0.261E-04    2.10      76.7  T
     SCC iter.                  ...        0 min,  0.011 sec
     gradient                   ...        0 min,  0.011 sec
 * total energy  :   -59.7346222 Eh     change       -0.5073625E-03 Eh
   gradient norm :     0.0339657 Eh/α   predicted    -0.3932558E-03 ( -22.49%)
   displ. norm   :     0.3520828 α      lambda       -0.4908502E-03
   maximum displ.:     0.1977375 α      in ANC's #1, #3, #9, ...

........................................................................
.............................. CYCLE   38 ..............................
........................................................................

 iter      E             dE          RMSdq      gap      omega  full diag
   1    -42.6889052 -0.426889E+02  0.135E-01    2.10       0.0  T
   2    -42.6889534 -0.481627E-04  0.830E-02    2.12       1.0  T
   3    -42.6889239  0.295045E-04  0.566E-02    2.09       1.0  T
   4    -42.6889798 -0.559388E-04  0.196E-02    2.11       1.0  T
   5    -42.6889873 -0.744519E-05  0.344E-03    2.11       5.8  T
   6    -42.6889874 -0.171902E-06  0.184E-03    2.11      10.9  T
   7    -42.6889875 -0.165685E-07  0.661E-04    2.11      30.3  T
   8    -42.6889875 -0.377403E-08  0.278E-04    2.11      71.9  T
     SCC iter.                  ...        0 min,  0.011 sec
     gradient                   ...        0 min,  0.011 sec
 * total energy  :   -59.7349177 Eh     change       -0.2954758E-03 Eh
   gradient norm :     0.0550985 Eh/α   predicted    -0.2758517E-03 (  -6.64%)
   displ. norm   :     0.2774642 α      lambda       -0.9063368E-03
   maximum displ.:     0.1544957 α      in ANC's #9, #10, #12, ...

........................................................................
.............................. CYCLE   39 ..............................
........................................................................

 iter      E             dE          RMSdq      gap      omega  full diag
   1    -42.6979372 -0.426979E+02  0.139E-01    2.09       0.0  T
   2    -42.6979873 -0.501561E-04  0.892E-02    2.12       1.0  T
   3    -42.6979620  0.253563E-04  0.565E-02    2.09       1.0  T
   4    -42.6980128 -0.508273E-04  0.211E-02    2.11       1.0  T
   5    -42.6980210 -0.820200E-05  0.476E-03    2.11       4.2  T
   6    -42.6980213 -0.283020E-06  0.256E-03    2.11       7.8  T
   7    -42.6980213 -0.290574E-07  0.935E-04    2.11      21.4  T
   8    -42.6980213 -0.101294E-07  0.359E-04    2.11      55.7  T
     SCC iter.                  ...        0 min,  0.011 sec
     gradient                   ...        0 min,  0.011 sec
 * total energy  :   -59.7347096 Eh     change        0.2081353E-03 Eh
   gradient norm :     0.0539604 Eh/α   predicted    -0.4880659E-03 (-334.49%)
   displ. norm   :     0.1205167 α      lambda       -0.1151824E-02
   maximum displ.:     0.0923757 α      in ANC's #4, #3, #5, ...

........................................................................
.............................. CYCLE   40 ..............................
........................................................................

 iter      E             dE          RMSdq      gap      omega  full diag
   1    -42.6929968 -0.426930E+02  0.803E-02    2.12       0.0  T
   2    -42.6930180 -0.212426E-04  0.460E-02    2.12       1.0  T
   3    -42.6930179  0.569332E-07  0.220E-02    2.12       1.0  T
   4    -42.6930199 -0.192756E-05  0.808E-03    2.12       2.5  T
   5    -42.6930213 -0.140782E-05  0.304E-03    2.12       6.6  T
   6    -42.6930214 -0.113943E-06  0.141E-03    2.12      14.2  T
   7    -42.6930214 -0.978253E-08  0.400E-04    2.12      50.0  T
   8    -42.6930214 -0.228122E-08  0.189E-04    2.12     105.5  T
     SCC iter.                  ...        0 min,  0.011 sec
     gradient                   ...        0 min,  0.012 sec
 * total energy  :   -59.7353233 Eh     change       -0.6137213E-03 Eh
   gradient norm :     0.0159931 Eh/α   predicted    -0.5843072E-03 (  -4.79%)
   displ. norm   :     0.1073715 α      lambda       -0.3207718E-03
   maximum displ.:     0.0480331 α      in ANC's #1, #8, #9, ...

........................................................................
.............................. CYCLE   41 ..............................
........................................................................

 iter      E             dE          RMSdq      gap      omega  full diag
   1    -42.6925143 -0.426925E+02  0.474E-02    2.13       0.0  T
   2    -42.6925209 -0.659510E-05  0.274E-02    2.14       1.0  T
   3    -42.6925209 -0.467329E-07  0.144E-02    2.13       1.4  T
   4    -42.6925227 -0.182461E-05  0.286E-03    2.14       7.0  T
   5    -42.6925228 -0.965268E-07  0.125E-03    2.14      16.0  T
   6    -42.6925228 -0.950863E-08  0.870E-04    2.14      23.0  T
   7    -42.6925228 -0.108995E-07  0.199E-04    2.14     100.7  T
     SCC iter.                  ...        0 min,  0.010 sec
     gradient                   ...        0 min,  0.012 sec
 * total energy  :   -59.7354813 Eh     change       -0.1580304E-03 Eh
   gradient norm :     0.0645425 Eh/α   predicted    -0.1622383E-03 (   2.66%)
   displ. norm   :     0.1573146 α      lambda       -0.3712212E-03
   maximum displ.:     0.1148773 α      in ANC's #1, #4, #8, ...

........................................................................
.............................. CYCLE   42 ..............................
........................................................................

 iter      E             dE          RMSdq      gap      omega  full diag
   1    -42.6934433 -0.426934E+02  0.721E-02    2.14       0.0  T
   2    -42.6934656 -0.222341E-04  0.418E-02    2.15       1.0  T
   3    -42.6934672 -0.160092E-05  0.224E-02    2.15       1.0  T
   4    -42.6934690 -0.185681E-05  0.748E-03    2.15       2.7  T
   5    -42.6934705 -0.148163E-05  0.217E-03    2.15       9.2  T
   6    -42.6934706 -0.811473E-07  0.705E-04    2.15      28.4  T
   7    -42.6934706 -0.333785E-09  0.277E-04    2.15      72.3  T
     SCC iter.                  ...        0 min,  0.010 sec
     gradient                   ...        0 min,  0.011 sec
 * total energy  :   -59.7356996 Eh     change       -0.2182617E-03 Eh
   gradient norm :     0.0115966 Eh/α   predicted    -0.1902081E-03 ( -12.85%)
   displ. norm   :     0.3802170 α      lambda       -0.6589575E-03
   maximum displ.:     0.1767566 α      in ANC's #9, #8, #1, ...
 * RMSD in coord.:     0.8092090 α      energy gain  -0.6760552E-01 Eh

generating ANC from model Hessian ...
Using Lindh-Hessian (1995)
 Shifting diagonal of input Hessian by    7.5444044830745988E-003
 Lowest  eigenvalues of input Hessian
    0.000000    0.000000    0.000000    0.000000    0.000000    0.000000
    0.010000    0.010994    0.013213    0.013705    0.015088    0.017998
    0.018528    0.020283    0.023537    0.026043    0.029262    0.032821
 Highest eigenvalues
    2.210502    2.335765    2.389514    2.410177   16.342735   23.729658


........................................................................
.............................. CYCLE   43 ..............................
........................................................................

 iter      E             dE          RMSdq      gap      omega  full diag
   1    -42.6937429 -0.426937E+02  0.159E-01    2.16       0.0  T
   2    -42.6937904 -0.475203E-04  0.962E-02    2.20       1.0  T
   3    -42.6937598  0.306117E-04  0.538E-02    2.16       1.0  T
   4    -42.6938063 -0.464841E-04  0.196E-02    2.18       1.0  T
   5    -42.6938139 -0.761832E-05  0.409E-03    2.18       4.9  T
   6    -42.6938142 -0.228847E-06  0.231E-03    2.18       8.7  T
   7    -42.6938142 -0.352139E-07  0.916E-04    2.18      21.8  T
   8    -42.6938142 -0.107244E-07  0.403E-04    2.18      49.6  T
     SCC iter.                  ...        0 min,  0.011 sec
     gradient                   ...        0 min,  0.011 sec
 * total energy  :   -59.7360634 Eh     change       -0.3637763E-03 Eh
   gradient norm :     0.0710528 Eh/α   predicted     0.0000000E+00 (-100.00%)
   displ. norm   :     0.0916338 α      lambda       -0.3176140E-02
   maximum displ.:     0.0380343 α      in ANC's #1, #2, #5, ...

........................................................................
.............................. CYCLE   44 ..............................
........................................................................

 iter      E             dE          RMSdq      gap      omega  full diag
   1    -42.6910236 -0.426910E+02  0.649E-02    2.19       0.0  T
   2    -42.6910313 -0.771262E-05  0.358E-02    2.18       1.0  T
   3    -42.6910302  0.103545E-05  0.169E-02    2.19       1.2  T
   4    -42.6910327 -0.243832E-05  0.461E-03    2.19       4.3  T
   5    -42.6910330 -0.337901E-06  0.238E-03    2.18       8.4  T
   6    -42.6910330 -0.394085E-07  0.132E-03    2.19      15.2  T
   7    -42.6910331 -0.153750E-07  0.338E-04    2.19      59.2  T
   8    -42.6910331 -0.166413E-08  0.105E-04    2.19     190.1  T
     SCC iter.                  ...        0 min,  0.011 sec
     gradient                   ...        0 min,  0.011 sec
 * total energy  :   -59.7018050 Eh     change        0.3425831E-01 Eh
   gradient norm :     1.8303569 Eh/α   predicted    -0.1601467E-02 (-104.67%)
   displ. norm   :     0.0453956 α      lambda       -0.7187895E-01
   maximum displ.:     0.0233698 α      in ANC's #67, #54, #50, ...

........................................................................
.............................. CYCLE   45 ..............................
........................................................................

 iter      E             dE          RMSdq      gap      omega  full diag
   1    -42.6954063 -0.426954E+02  0.448E-02    2.18       0.0  T
   2    -42.6954112 -0.496082E-05  0.231E-02    2.19       1.0  T
   3    -42.6954108  0.439327E-06  0.138E-02    2.19       1.5  T
   4    -42.6954121 -0.136215E-05  0.467E-03    2.19       4.3  T
   5    -42.6954125 -0.338141E-06  0.200E-03    2.19      10.0  T
   6    -42.6954125 -0.171906E-07  0.885E-04    2.19      22.6  T
   7    -42.6954125 -0.847229E-08  0.158E-04    2.19     126.9  T
     SCC iter.                  ...        0 min,  0.010 sec
     gradient                   ...        0 min,  0.011 sec
 * total energy  :   -59.7363626 Eh     change       -0.3455751E-01 Eh
   gradient norm :     0.0081565 Eh/α   predicted    -0.3601366E-01 (   4.21%)
   displ. norm   :     0.0807099 α      lambda       -0.1226734E-03
   maximum displ.:     0.0517936 α      in ANC's #1, #2, #3, ...

........................................................................
.............................. CYCLE   46 ..............................
........................................................................

 iter      E             dE          RMSdq      gap      omega  full diag
   1    -42.6954174 -0.426954E+02  0.293E-02    2.19       0.0  T
   2    -42.6954177 -0.294810E-06  0.172E-02    2.19       1.2  T
   3    -42.6954170  0.668932E-06  0.569E-03    2.19       3.5  T
   4    -42.6954177 -0.761864E-06  0.143E-03    2.19      14.0  T
   5    -42.6954178 -0.440343E-07  0.660E-04    2.19      30.3  T
   6    -42.6954178 -0.301734E-08  0.300E-04    2.19      66.6  T
     SCC iter.                  ...        0 min,  0.009 sec
     gradient                   ...        0 min,  0.011 sec
 * total energy  :   -59.7364646 Eh     change       -0.1020824E-03 Eh
   gradient norm :     0.0071693 Eh/α   predicted    -0.6177700E-04 ( -39.48%)
   displ. norm   :     0.2831057 α      lambda       -0.3315682E-03
   maximum displ.:     0.1566812 α      in ANC's #1, #2, #3, ...

........................................................................
.............................. CYCLE   47 ..............................
........................................................................

 iter      E             dE          RMSdq      gap      omega  full diag
   1    -42.6943049 -0.426943E+02  0.958E-02    2.21       0.0  T
   2    -42.6943080 -0.303777E-05  0.564E-02    2.21       1.0  T
   3    -42.6943002  0.773231E-05  0.188E-02    2.20       1.1  T
   4    -42.6943092 -0.894579E-05  0.458E-03    2.21       4.4  T
   5    -42.6943096 -0.382415E-06  0.214E-03    2.21       9.3  T
   6    -42.6943096 -0.364316E-07  0.957E-04    2.21      20.9  T
   7    -42.6943096 -0.588004E-08  0.208E-04    2.21      96.0  T
     SCC iter.                  ...        0 min,  0.010 sec
     gradient                   ...        0 min,  0.011 sec
 * total energy  :   -59.7366792 Eh     change       -0.2145238E-03 Eh
   gradient norm :     0.0099308 Eh/α   predicted    -0.1790929E-03 ( -16.52%)
   displ. norm   :     0.2184239 α      lambda       -0.1735400E-03
   maximum displ.:     0.1283181 α      in ANC's #1, #2, #3, ...

........................................................................
.............................. CYCLE   48 ..............................
........................................................................

 iter      E             dE          RMSdq      gap      omega  full diag
   1    -42.6936246 -0.426936E+02  0.706E-02    2.22       0.0  T
   2    -42.6936259 -0.136654E-05  0.412E-02    2.22       1.0  T
   3    -42.6936241  0.177353E-05  0.101E-02    2.22       2.0  T
   4    -42.6936265 -0.230240E-05  0.247E-03    2.22       8.1  T
   5    -42.6936265 -0.729159E-07  0.142E-03    2.22      14.1  T
   6    -42.6936265 -0.170435E-07  0.493E-04    2.22      40.6  T
   7    -42.6936265 -0.354299E-08  0.159E-04    2.22     125.6  T
     SCC iter.                  ...        0 min,  0.010 sec
     gradient                   ...        0 min,  0.012 sec
 * total energy  :   -59.7368149 Eh     change       -0.1357525E-03 Eh
   gradient norm :     0.0108516 Eh/α   predicted    -0.9091582E-04 ( -33.03%)
   displ. norm   :     0.3348767 α      lambda       -0.2829852E-03
   maximum displ.:     0.2026290 α      in ANC's #1, #3, #2, ...

........................................................................
.............................. CYCLE   49 ..............................
........................................................................

 iter      E             dE          RMSdq      gap      omega  full diag
   1    -42.6934067 -0.426934E+02  0.108E-01    2.24       0.0  T
   2    -42.6934114 -0.465215E-05  0.627E-02    2.24       1.0  T
   3    -42.6934072  0.417353E-05  0.177E-02    2.23       1.1  T
   4    -42.6934130 -0.576698E-05  0.324E-03    2.24       6.2  T
   5    -42.6934131 -0.904151E-07  0.210E-03    2.24       9.5  T
   6    -42.6934131 -0.366258E-07  0.920E-04    2.24      21.7  T
   7    -42.6934131 -0.111741E-07  0.293E-04    2.24      68.2  T
     SCC iter.                  ...        0 min,  0.010 sec
     gradient                   ...        0 min,  0.012 sec
 * total energy  :   -59.7370278 Eh     change       -0.2128746E-03 Eh
   gradient norm :     0.0156279 Eh/α   predicted    -0.1573664E-03 ( -26.08%)
   displ. norm   :     0.3020712 α      lambda       -0.3045121E-03
   maximum displ.:     0.1927192 α      in ANC's #1, #3, #2, ...

........................................................................
.............................. CYCLE   50 ..............................
........................................................................

 iter      E             dE          RMSdq      gap      omega  full diag
   1    -42.6950114 -0.426950E+02  0.102E-01    2.25       0.0  T
   2    -42.6950190 -0.757271E-05  0.596E-02    2.26       1.0  T
   3    -42.6950131  0.591360E-05  0.231E-02    2.25       1.0  T
   4    -42.6950206 -0.750970E-05  0.582E-03    2.25       3.4  T
   5    -42.6950214 -0.833148E-06  0.223E-03    2.26       9.0  T
   6    -42.6950215 -0.468800E-07  0.107E-03    2.26      18.7  T
   7    -42.6950215 -0.412284E-08  0.360E-04    2.26      55.5  T
   8    -42.6950215 -0.180744E-08  0.173E-04    2.26     115.7  T
     SCC iter.                  ...        0 min,  0.011 sec
     gradient                   ...        0 min,  0.011 sec
 * total energy  :   -59.7372479 Eh     change       -0.2200908E-03 Eh
   gradient norm :     0.0247873 Eh/α   predicted    -0.1661549E-03 ( -24.51%)
   displ. norm   :     0.2367168 α      lambda       -0.2404134E-03
   maximum displ.:     0.1563158 α      in ANC's #1, #3, #2, ...

........................................................................
.............................. CYCLE   51 ..............................
........................................................................

 iter      E             dE          RMSdq      gap      omega  full diag
   1    -42.6971349 -0.426971E+02  0.794E-02    2.27       0.0  T
   2    -42.6971406 -0.568074E-05  0.464E-02    2.27       1.0  T
   3    -42.6971377  0.286599E-05  0.182E-02    2.27       1.1  T
   4    -42.6971419 -0.417396E-05  0.390E-03    2.27       5.1  T
   5    -42.6971422 -0.329867E-06  0.193E-03    2.27      10.3  T
   6    -42.6971423 -0.436534E-07  0.926E-04    2.27      21.6  T
   7    -42.6971423 -0.292962E-08  0.294E-04    2.27      68.1  T
     SCC iter.                  ...        0 min,  0.010 sec
     gradient                   ...        0 min,  0.011 sec
[...]
C           -1.30911420711463       -2.86816662184969        0.90041404138434
H            3.98422812613228        0.91054626302396        0.14686204549143
H            3.06599786861762        1.30060814618931       -1.32100499505884
H            2.54793313404414        1.96126199080546        0.23892958678474
H            3.62185880982115       -1.59869436436767        0.09635576332443
H           -1.82543032574739        2.77628377939057        0.76223217135552
H           -2.55571306038032        2.68573241558630       -0.86098524320841
H           -3.17288225730914        1.64424786676281        0.42380802394834
H           -0.73229813855225       -3.46805246382059        1.60224113622926
H           -1.42823573998349       -0.22794539423738       -1.38542381602441
H           -2.34376132124956       -3.13055258944387        0.74277278466425
H            1.60808602206527       -3.12211979219820        0.41515502690978

 Bond Distances (Angstroems)
 ---------------------------
C1-N2=1.4392         C1-H15=1.0873        C1-H16=1.0914        C1-H17=1.0901        N2-C1=1.4392         N2-C3=1.3239         
N2-C6=1.3755         C3-N2=1.3239         C3-N4=1.3379         C3-H18=1.0734        N4-C3=1.3379         N4-C5=1.3817         
N4-H25=1.0105        C5-N4=1.3817         C5-C6=1.3960         C5-N13=1.3428        C6-N2=1.3755         C6-C5=1.3960         
C6-C7=1.4886         C7-C6=1.4886         C7-O8=1.2117         C7-N9=1.3687         O8-C7=1.2117         N9-C7=1.3687         
N9-C10=1.4466        N9-C11=1.4612        C10-N9=1.4466        C10-H19=1.0866       C10-H20=1.0906       C10-H21=1.0899       
C11-N9=1.4612        C11-O12=1.2282       C11-H23=0.4244       O12-C11=1.2282       N13-C5=1.3428        N13-C14=1.2691       
C14-N13=1.2691       C14-H22=1.0886       C14-H24=1.0790       H15-C1=1.0873        H16-C1=1.0914        H17-C1=1.0901        
H18-C3=1.0734        H19-C10=1.0866       H20-C10=1.0906       H21-C10=1.0899       H22-C14=1.0886       H23-C11=0.4244       
H24-C14=1.0790       H25-N4=1.0105        
 C  H  Rav=1.0201 sigma=0.1987  Rmin=0.4244  Rmax=1.0914    10
 C  C  Rav=1.4423 sigma=0.0463  Rmin=1.3960  Rmax=1.4886     2
 N  H  Rav=1.0105 sigma=0.0000  Rmin=1.0105  Rmax=1.0105     1
 N  C  Rav=1.3746 sigma=0.0574  Rmin=1.2691  Rmax=1.4612    10
 O  C  Rav=1.2200 sigma=0.0083  Rmin=1.2117  Rmax=1.2282     2

 selected bond angles (degree)
 --------------------
H15-C1-N2=109.78               H16-C1-N2=110.18               H16-C1-H15=109.10              H17-C1-N2=109.31               
H17-C1-H15=109.85              H17-C1-H16=108.60              C3-N2-C1=125.11                C6-N2-C1=125.95                
C6-N2-C3=108.87                N4-C3-N2=109.53                H18-C3-N2=125.27               H18-C3-N4=125.20               
C5-N4-C3=108.77                H25-N4-C3=125.58               H25-N4-C5=125.60               C6-C5-N4=105.90                
N13-C5-N4=126.88               N13-C5-C6=127.02               C5-C6-N2=106.88                C7-C6-N2=122.92                
C7-C6-C5=128.68                O8-C7-C6=120.58                N9-C7-C6=115.78                N9-C7-O8=123.55                
C10-N9-C7=119.35               C11-N9-C7=121.25               C11-N9-C10=119.10              H19-C10-N9=109.27              
H20-C10-N9=110.08              H20-C10-H19=109.89             H21-C10-N9=108.62              H21-C10-H19=110.85             
H21-C10-H20=108.11             

 selected dihedral angles (degree)
 ---------------------------------
C3-N2-C1-H15=334.61           C3-N2-C1-H16= 94.79           C3-N2-C1-H17=214.06           C6-N2-C1-H15=158.05           
C6-N2-C1-H16=278.23           C6-N2-C1-H17= 37.50           N4-C3-N2-C1=180.72            N4-C3-N2-C6=357.78            
H18-C3-N2-C1=  0.54           H18-C3-N2-C6=177.60           C5-N4-C3-N2=  1.34            C5-N4-C3-H18=181.52           
H25-N4-C3-N2=178.88           H25-N4-C3-H18=359.06          C6-C5-N4-C3=  0.06            C6-C5-N4-H25=182.52           
N13-C5-N4-C3=175.33           N13-C5-N4-H25=357.79          C5-C6-N2-C1=179.24            C5-C6-N2-C3=  2.21            
C7-C6-N2-C1=346.25            C7-C6-N2-C3=169.22            N2-C6-C5-N4=358.64            N2-C6-C5-N13=183.38           
C7-C6-C5-N4=192.63            C7-C6-C5-N13= 17.36           O8-C7-C6-N2=334.93            O8-C7-C6-C5=138.93            
N9-C7-C6-N2=158.37            N9-C7-C6-C5=322.37            C10-N9-C7-C6=164.85           C10-N9-C7-O8=348.41           
C11-N9-C7-C6=338.52           C11-N9-C7-O8=162.08           H19-C10-N9-C7=350.24          H19-C10-N9-C11=176.43         
H20-C10-N9-C7=111.01          H20-C10-N9-C11=297.20         H21-C10-N9-C7=229.20          H21-C10-N9-C11= 55.39         
           -------------------------------------------------
          |                Final Singlepoint                |
           -------------------------------------------------

          ...................................................
          :                      SETUP                      :
          :.................................................:
          :  # basis functions                  67          :
          :  # atomic orbitals                  67          :
          :  # shells                           39          :
          :  # electrons                        74          :
          :  max. iterations                   250          :
          :  Hamiltonian                  GFN2-xTB          :
          :  restarted?                      false          :
          :  GBSA solvation                  false          :
          :  PC potential                    false          :
          :  electronic temp.         5000.0000000     K    :
          :  accuracy                    1.0000000          :
          :  -> integral cutoff          0.2500000E+02      :
          :  -> integral neglect         0.1000000E-07      :
          :  -> SCF convergence          0.1000000E-05 Eh   :
          :  -> wf. convergence          0.1000000E-03 e    :
          :  Broyden damping             0.4000000          :
          ...................................................

 iter      E             dE          RMSdq      gap      omega  full diag
   1    -42.7010891 -0.427011E+02  0.102E-04    2.42       0.0  T
   2    -42.7010891 -0.222897E-10  0.850E-05    2.42     235.4  T
   3    -42.7010891 -0.162125E-09  0.336E-05    2.42     595.9  T

   *** convergence criteria satisfied after 3 iterations ***

         #    Occupation            Energy/Eh            Energy/eV
      -------------------------------------------------------------
         1        2.0000           -0.9127518             -24.8372
       ...           ...                  ...                  ...
        31        1.9990           -0.6172973             -16.7975
        32        1.9963           -0.5965430             -16.2328
        33        1.9958           -0.5946718             -16.1818
        34        1.9812           -0.5707318             -15.5304
        35        1.9606           -0.5588883             -15.2081
        36        1.9486           -0.5545775             -15.0908
        37        1.9189           -0.5471147             -14.8877 (HOMO)
        38        0.1599           -0.4583264             -12.4717 (LUMO)
        39        0.0341           -0.4328185             -11.7776
        40        0.0062           -0.4055611             -11.0359
        41        0.0006           -0.3685859             -10.0297
        42        0.0000           -0.3224655              -8.7747
       ...           ...                  ...                  ...
        67                         10.6215889             289.0281
      -------------------------------------------------------------
                  HL-Gap            0.0887882 Eh            2.4161 eV
             Fermi-level           -0.4970108 Eh          -13.5244 eV

 SCC (total)                   0 d,  0 h,  0 min,  0.021 sec
 SCC setup                      ...        0 min,  0.000 sec (  0.844%)
 Dispersion                     ...        0 min,  0.000 sec (  0.858%)
 classical contributions        ...        0 min,  0.000 sec (  0.324%)
 integral evaluation            ...        0 min,  0.004 sec ( 21.014%)
 iterations                     ...        0 min,  0.005 sec ( 21.998%)
 molecular gradient             ...        0 min,  0.011 sec ( 54.367%)
 printout                       ...        0 min,  0.000 sec (  0.535%)

         :::::::::::::::::::::::::::::::::::::::::::::::::::::
         ::                     SUMMARY                     ::
         :::::::::::::::::::::::::::::::::::::::::::::::::::::
         :: total energy             -59.739091193359 Eh    ::
         :: gradient norm              0.002585209147 Eh/a0 ::
         :: HOMO-LUMO gap              2.416050639345 eV    ::
         ::.................................................::
         :: SCC energy               -42.701089110217 Eh    ::
         :: -> isotropic ES            0.137911219902 Eh    ::
         :: -> anisotropic ES         -0.005325880117 Eh    ::
         :: -> anisotropic XC          0.018648075041 Eh    ::
         :: -> dispersion             -0.022393773611 Eh    ::
         :: repulsion energy           2.276178784562 Eh    ::
         :: add. restraining         -19.314370808738 Eh    ::
         :: total charge               1.000000000000 e     ::
         :::::::::::::::::::::::::::::::::::::::::::::::::::::

           -------------------------------------------------
          |                Property Printout                |
           -------------------------------------------------

    * Orbital Energies and Occupations

         #    Occupation            Energy/Eh            Energy/eV
      -------------------------------------------------------------
         1        2.0000           -0.9127518             -24.8372
       ...           ...                  ...                  ...
        25        2.0000           -0.6652409             -18.1021
        26        1.9999           -0.6615783             -18.0025
        27        1.9999           -0.6550675             -17.8253
        28        1.9999           -0.6482212             -17.6390
        29        1.9997           -0.6378318             -17.3563
        30        1.9994           -0.6260568             -17.0359
        31        1.9990           -0.6172973             -16.7975
        32        1.9963           -0.5965430             -16.2328
        33        1.9958           -0.5946718             -16.1818
        34        1.9812           -0.5707318             -15.5304
        35        1.9606           -0.5588883             -15.2081
        36        1.9486           -0.5545775             -15.0908
        37        1.9189           -0.5471147             -14.8877 (HOMO)
        38        0.1599           -0.4583264             -12.4717 (LUMO)
        39        0.0341           -0.4328185             -11.7776
        40        0.0062           -0.4055611             -11.0359
        41        0.0006           -0.3685859             -10.0297
        42        0.0000           -0.3224655              -8.7747
        43                         -0.1915579              -5.2126
        44                         -0.1744655              -4.7474
        45                         -0.1367968              -3.7224
        46                         -0.0804707              -2.1897
        47                         -0.0541434              -1.4733
        48                         -0.0454312              -1.2362
       ...                                ...                  ...
        67                         10.6215889             289.0281
      -------------------------------------------------------------
                  HL-Gap            0.0887882 Eh            2.4161 eV
             Fermi-level           -0.4970108 Eh          -13.5244 eV

     #   Z          covCN         q      C6AA      α(0)
     1   6 C        3.693    -0.096    22.528     6.791
     2   7 N        2.844     0.089    19.705     6.593
     3   6 C        3.030     0.061    26.599     8.460
     4   7 N        2.802    -0.060    22.401     7.030
     5   6 C        3.019     0.122    25.299     8.251
     6   6 C        3.090    -0.016    28.299     8.720
     7   6 C        2.762     0.273    22.378     7.747
     8   8 O        0.859    -0.358    20.862     6.124
     9   7 N        2.740    -0.088    22.948     7.115
    10   6 C        3.696    -0.061    21.854     6.687
    11   6 C        2.703     0.191    23.919     8.005
    12   8 O        0.867    -0.302    19.807     5.967
    13   7 N        1.825    -0.159    25.235     7.444
    14   6 C        2.792     0.038    27.132     8.533
    15   1 H        0.925     0.103     1.756     2.073
    16   1 H        0.924     0.109     1.705     2.042
    17   1 H        0.925     0.142     1.448     1.882
    18   1 H        0.926     0.125     1.575     1.962
    19   1 H        0.925     0.104     1.752     2.070
    20   1 H        0.924     0.101     1.779     2.086
    21   1 H        0.925     0.105     1.743     2.065
    22   1 H        0.925     0.069     2.096     2.264
    23   1 H        0.946     0.164     1.298     1.781
    24   1 H        0.926     0.118     1.631     1.997
    25   1 H        0.860     0.227     0.977     1.548

 Mol. C6AA /au·bohr⁶  :       6642.997608
 Mol. C8AA /au·bohr⁸  :     152952.425366
 Mol. α(0) /au        :        125.234223


Wiberg/Mayer (AO) data.
largest (>0.10) Wiberg bond orders for each atom

 ---------------------------------------------------------------------------
     #   Z sym  total        # sym  WBO       # sym  WBO       # sym  WBO
 ---------------------------------------------------------------------------
     1   6 C    3.913 --     2 N    0.985    15 H    0.971    16 H    0.953
                            17 H    0.950
     2   7 N    3.712 --     3 C    1.393     6 C    1.186     1 C    0.985
     3   6 C    3.906 --     2 N    1.393     4 N    1.322    18 H    0.950
     4   7 N    3.596 --     3 C    1.322     5 C    1.147    25 H    0.920
     5   6 C    3.917 --     6 C    1.375    13 N    1.212     4 N    1.147
     6   6 C    3.881 --     5 C    1.375     2 N    1.186     7 C    0.996
     7   6 C    3.940 --     8 O    1.687     9 N    1.170     6 C    0.996
     8   8 O    2.020 --     7 C    1.687     9 N    0.142
     9   7 N    3.530 --     7 C    1.170    11 C    1.044    10 C    0.986
                            12 O    0.150     8 O    0.142
    10   6 C    3.911 --     9 N    0.986    19 H    0.969    21 H    0.955
                            20 H    0.954
    11   6 C    3.904 --    12 O    1.823     9 N    1.044    23 H    0.956
    12   8 O    2.061 --    11 C    1.823     9 N    0.150
    13   7 N    3.159 --    14 C    1.780     5 C    1.212
    14   6 C    3.805 --    13 N    1.780    24 H    0.956    22 H    0.949
    15   1 H    0.988 --     1 C    0.971
    16   1 H    0.986 --     1 C    0.953
    17   1 H    0.979 --     1 C    0.950
    18   1 H    0.984 --     3 C    0.950
    19   1 H    0.986 --    10 C    0.969
    20   1 H    0.976 --    10 C    0.954
    21   1 H    0.977 --    10 C    0.955
    22   1 H    0.984 --    14 C    0.949
    23   1 H    0.969 --    11 C    0.956
    24   1 H    0.981 --    14 C    0.956
    25   1 H    0.948 --     4 N    0.920
 ---------------------------------------------------------------------------

Topologies differ in total number of bonds
Writing topology from bond orders to xtbtopo.mol

molecular dipole:
                 x           y           z       tot (Debye)
 q only:        2.500      -1.980       0.210
   full:        2.939      -2.608       0.381      10.035
molecular quadrupole (traceless):
                xx          xy          yy          xz          yz          zz
 q only:       11.756      -7.615       6.795      -6.021      -7.283     -18.552
  q+dip:        8.993     -10.354       9.243      -7.032     -10.535     -18.236
   full:        7.917     -10.268       8.694      -7.794     -10.179     -16.611

           -------------------------------------------------
          |                Geometry Summary                 |
           -------------------------------------------------

      molecular mass/u    :      195.1988581
   center of mass at/Å    :        0.0025523      -0.1036689      -0.0633186
  moments of inertia/u·Å² :        0.5384765E+03   0.7687558E+03   0.1172029E+04
rotational constants/cm⁻¹ :        0.3130616E-01   0.2192846E-01   0.1438329E-01

 * 23 selected distances

     #   Z          #   Z                                           value/Å
     1   6 C        2   7 N                                       1.4391777
     2   7 N        3   6 C                                       1.3239257
     3   6 C        4   7 N                                       1.3378946
     4   7 N        5   6 C                                       1.3816758
     2   7 N        6   6 C                                       1.3754753
     5   6 C        6   6 C                                       1.3959889
     7   6 C        8   8 O                                       1.2117310
     7   6 C        9   7 N                                       1.3686676
     9   7 N       10   6 C                                       1.4465515 (max)
    11   6 C       12   8 O                                       1.2282350
     5   6 C       13   7 N                                       1.3427998
    13   7 N       14   6 C                                       1.2690661
     1   6 C       15   1 H                                       1.0873155
     1   6 C       16   1 H                                       1.0913534
     1   6 C       17   1 H                                       1.0900814
     3   6 C       18   1 H                                       1.0733651
    10   6 C       19   1 H                                       1.0866260
    10   6 C       20   1 H                                       1.0905619
    10   6 C       21   1 H                                       1.0899208
    14   6 C       22   1 H                                       1.0886419
    11   6 C       23   1 H                                       0.4243862 (min)
    14   6 C       24   1 H                                       1.0789773
     4   7 N       25   1 H                                       1.0105123

 * 5 distinct bonds (by element types)

   Z      Z             #   av. dist./Å        max./Å        min./Å
   1 H    6 C          10     1.0201230     1.0913534     0.4243862
   6 C    6 C           1     1.3959889     1.3959889     1.3959889
   1 H    7 N           1     1.0105123     1.0105123     1.0105123
   6 C    7 N           9     1.3650260     1.4465515     1.2690661
   6 C    8 O           2     1.2199830     1.2282350     1.2117310


optimized geometry written to: xtbopt.xyz


           -------------------------------------------------
          | TOTAL ENERGY              -59.739091193359 Eh   |
          | GRADIENT NORM               0.002585209147 Eh/α |
          | HOMO-LUMO GAP               2.416050639345 eV   |
           -------------------------------------------------

------------------------------------------------------------------------
 * finished run on 2024/06/05 at 19:58:09.288     
------------------------------------------------------------------------
 total:
 * wall-time:     0 d,  0 h,  0 min,  2.132 sec
 *  cpu-time:     0 d,  0 h,  0 min,  2.113 sec
 * ratio c/w:     0.991 speedup
 SCF:
 * wall-time:     0 d,  0 h,  0 min,  0.035 sec
 *  cpu-time:     0 d,  0 h,  0 min,  0.035 sec
 * ratio c/w:     0.999 speedup
 ANC optimizer:
 * wall-time:     0 d,  0 h,  0 min,  2.071 sec
 *  cpu-time:     0 d,  0 h,  0 min,  2.066 sec
 * ratio c/w:     0.998 speedup

