      -----------------------------------------------------------      
     |                   =====================                   |     
     |                           x T B                           |     
     |                   =====================                   |     
     |                         S. Grimme                         |     
     |          Mulliken Center for Theoretical Chemistry        |     
     |                    University of Bonn                     |     
      -----------------------------------------------------------      

   * xtb version 6.6.1 (8d0f1dd) compiled by 'conda@1efc2f54142f' on 2023-08-01

   xtb is free software: you can redistribute it and/or modify it under
   the terms of the GNU Lesser General Public License as published by
   the Free Software Foundation, either version 3 of the License, or
   (at your option) any later version.
   
   xtb is distributed in the hope that it will be useful,
   but WITHOUT ANY WARRANTY; without even the implied warranty of
   MERCHANTABILITY or FITNESS FOR A PARTICULAR PURPOSE.  See the
   GNU Lesser General Public License for more details.
   
   Cite this work as:
   * C. Bannwarth, E. Caldeweyher, S. Ehlert, A. Hansen, P. Pracht,
     J. Seibert, S. Spicher, S. Grimme, WIREs Comput. Mol. Sci., 2020, 11,
     e01493. DOI: 10.1002/wcms.1493
   
   for GFN2-xTB:
   * C. Bannwarth, S. Ehlert and S. Grimme., J. Chem. Theory Comput., 2019,
     15, 1652-1671. DOI: 10.1021/acs.jctc.8b01176
   for GFN1-xTB:
   * S. Grimme, C. Bannwarth, P. Shushkov, J. Chem. Theory Comput., 2017,
     13, 1989-2009. DOI: 10.1021/acs.jctc.7b00118
   for GFN0-xTB:
   * P. Pracht, E. Caldeweyher, S. Ehlert, S. Grimme, ChemRxiv, 2019, preprint.
     DOI: 10.26434/chemrxiv.8326202.v1
   for GFN-FF:
   * S. Spicher and S. Grimme, Angew. Chem. Int. Ed., 2020, 59, 15665-15673.
     DOI: 10.1002/anie.202004239
   
   for ALPB and GBSA implicit solvation:
   * S. Ehlert, M. Stahn, S. Spicher, S. Grimme, J. Chem. Theory Comput.,
     2021, 17, 4250-4261. DOI: 10.1021/acs.jctc.1c00471
   
   for DFT-D4:
   * E. Caldeweyher, C. Bannwarth and S. Grimme, J. Chem. Phys., 2017,
     147, 034112. DOI: 10.1063/1.4993215
   * E. Caldeweyher, S. Ehlert, A. Hansen, H. Neugebauer, S. Spicher,
     C. Bannwarth and S. Grimme, J. Chem. Phys., 2019, 150, 154122.
     DOI: 10.1063/1.5090222
   * E. Caldeweyher, J.-M. Mewes, S. Ehlert and S. Grimme, Phys. Chem. Chem. Phys.
     2020, 22, 8499-8512. DOI: 10.1039/D0CP00502A
   
   for sTDA-xTB:
   * S. Grimme and C. Bannwarth, J. Chem. Phys., 2016, 145, 054103.
     DOI: 10.1063/1.4959605
   
   in the mass-spec context:
   * V. Asgeirsson, C. Bauer and S. Grimme, Chem. Sci., 2017, 8, 4879.
     DOI: 10.1039/c7sc00601b
   * J. Koopman and S. Grimme, ACS Omega 2019, 4, 12, 15120-15133.
     DOI: 10.1021/acsomega.9b02011
   
   for metadynamics refer to:
   * S. Grimme, J. Chem. Theory Comput., 2019, 155, 2847-2862
     DOI: 10.1021/acs.jctc.9b00143
   
   for SPH calculations refer to:
   * S. Spicher and S. Grimme, J. Chem. Theory Comput., 2021, 17, 1701-1714
     DOI: 10.1021/acs.jctc.0c01306
   
   with help from (in alphabetical order)
   P. Atkinson, C. Bannwarth, F. Bohle, G. Brandenburg, E. Caldeweyher
   M. Checinski, S. Dohm, S. Ehlert, S. Ehrlich, I. Gerasimov, C. Hölzer
   A. Katbashev, J. Koopman, C. Lavigne, S. Lehtola, F. März, M. Müller,
   F. Musil, H. Neugebauer, J. Pisarek, C. Plett, P. Pracht, F. Pultar,
   J. Seibert, P. Shushkov, S. Spicher, M. Stahn, M. Steiner, T. Strunk,
   J. Stückrath, T. Rose, and J. Unsleber
   
 * started run on 2024/04/06 at 11:13:38.015     

           -------------------------------------------------
          |                Calculation Setup                |
           -------------------------------------------------

          program call               : xtb xtbopt.xyz --opt crude --input .xc2 --gfn2
          hostname                   : n-62-30-23
          coordinate file            : xtbopt.xyz
          omp threads                :                     1

   ID    Z sym.   atoms
    1    7 N      1, 17
    2    6 C      2-6, 8, 9, 11-16, 18-23, 25, 26, 28-33
    3    8 O      7, 10, 24, 27
    4    1 H      34-72
########################################################################
[WARNING] Please study the warnings concerning your input carefully
-1- readin_getIntValue: could not parse ''
########################################################################

           -------------------------------------------------
          |                 G F N 2 - x T B                 |
           -------------------------------------------------

        Reference                      10.1021/acs.jctc.8b01176
      * Hamiltonian:
        H0-scaling (s, p, d)           1.850000    2.230000    2.230000
        zeta-weighting                 0.500000
      * Dispersion:
        s8                             2.700000
        a1                             0.520000
        a2                             5.000000
        s9                             5.000000
      * Repulsion:
        kExp                           1.500000    1.000000
        rExp                           1.000000
      * Coulomb:
        alpha                          2.000000
        third order                    shell-resolved
        anisotropic                    true
        a3                             3.000000
        a5                             4.000000
        cn-shift                       1.200000
        cn-exp                         4.000000
        max-rad                        5.000000

q/qsh data taken from xtbrestart
CAMM data taken from xtbrestart

          ...................................................
          :                      SETUP                      :
          :.................................................:
          :  # basis functions                 171          :
          :  # atomic orbitals                 171          :
          :  # shells                          105          :
          :  # electrons                       180          :
          :  max. iterations                   250          :
          :  Hamiltonian                  GFN2-xTB          :
          :  restarted?                       true          :
          :  GBSA solvation                  false          :
          :  PC potential                    false          :
          :  electronic temp.         5000.0000000     K    :
          :  accuracy                    1.0000000          :
          :  -> integral cutoff          0.2500000E+02      :
          :  -> integral neglect         0.1000000E-07      :
          :  -> SCF convergence          0.1000000E-05 Eh   :
          :  -> wf. convergence          0.1000000E-03 e    :
          :  Broyden damping             0.4000000          :
          ...................................................

 iter      E             dE          RMSdq      gap      omega  full diag
   1   -100.7176895 -0.100718E+03  0.622E-05    0.88       0.0  T
   2   -100.7176895  0.432678E-09  0.847E-05    0.88     139.2  T
   3   -100.7176896 -0.720462E-09  0.228E-05    0.88     516.1  T

   *** convergence criteria satisfied after 3 iterations ***

         #    Occupation            Energy/Eh            Energy/eV
      -------------------------------------------------------------
         1        2.0000           -0.8232343             -22.4013
       ...           ...                  ...                  ...
        84        1.9949           -0.5079884             -13.8231
        85        1.9936           -0.5044500             -13.7268
        86        1.9790           -0.4854409             -13.2095
        87        1.9710           -0.4802647             -13.0687
        88        1.9356           -0.4673723             -12.7178
        89        1.8627           -0.4547706             -12.3749
        90        1.5844           -0.4346740             -11.8281 (HOMO)
        91        0.6574           -0.4021798             -10.9439 (LUMO)
        92        0.0212           -0.3416326              -9.2963
        93        0.0119           -0.3325013              -9.0478
        94        0.0047           -0.3175668              -8.6414
        95        0.0032           -0.3114009              -8.4736
       ...           ...                  ...                  ...
       171                          0.5766306              15.6909
      -------------------------------------------------------------
                  HL-Gap            0.0324942 Eh            0.8842 eV
             Fermi-level           -0.4134865 Eh          -11.2515 eV

 SCC (total)                   0 d,  0 h,  0 min,  0.120 sec
 SCC setup                      ...        0 min,  0.001 sec (  1.178%)
 Dispersion                     ...        0 min,  0.002 sec (  1.960%)
 classical contributions        ...        0 min,  0.001 sec (  0.531%)
 integral evaluation            ...        0 min,  0.018 sec ( 15.098%)
 iterations                     ...        0 min,  0.028 sec ( 22.967%)
 molecular gradient             ...        0 min,  0.070 sec ( 57.738%)
 printout                       ...        0 min,  0.001 sec (  0.515%)

         :::::::::::::::::::::::::::::::::::::::::::::::::::::
         ::                     SUMMARY                     ::
         :::::::::::::::::::::::::::::::::::::::::::::::::::::
         :: total energy             -99.349566243874 Eh    ::
         :: gradient norm              0.002256617704 Eh/a0 ::
         :: HOMO-LUMO gap              0.884211886540 eV    ::
         ::.................................................::
         :: SCC energy              -100.717689550144 Eh    ::
         :: -> isotropic ES            0.105782890736 Eh    ::
         :: -> anisotropic ES          0.005656765451 Eh    ::
         :: -> anisotropic XC          0.043994565907 Eh    ::
         :: -> dispersion             -0.074658920160 Eh    ::
         :: repulsion energy           1.366599429888 Eh    ::
         :: add. restraining           0.000000000000 Eh    ::
         :: total charge               1.000000000028 e     ::
         :::::::::::::::::::::::::::::::::::::::::::::::::::::

      ----------------------------------------------------------- 
     |                   =====================                   |
     |                        A N C O P T                        |
     |                   =====================                   |
     |               Approximate Normal Coordinate               |
     |                Rational Function Optimizer                |
      ----------------------------------------------------------- 

          ...................................................
          :                      SETUP                      :
          :.................................................:
          :   optimization level             crude          :
          :   max. optcycles                   200          :
          :   ANC micro-cycles                  20          :
          :   degrees of freedom               210          :
          :.................................................:
          :   RF solver                   davidson          :
          :   write xtbopt.log                true          :
          :   linear?                        false          :
          :   energy convergence         0.5000000E-03 Eh   :
          :   grad. convergence          0.1000000E-01 Eh/α :
          :   maxmium RF displ.          1.0000000          :
          :   Hlow (freq-cutoff)         0.1000000E-01      :
          :   Hmax (freq-cutoff)         5.0000000          :
          :   S6 in model hess.         20.0000000          :
          ...................................................

generating ANC from model Hessian ...
Using Lindh-Hessian (1995)
 Shifting diagonal of input Hessian by    9.9740380976820510E-003
 Lowest  eigenvalues of input Hessian
    0.000000    0.000000    0.000000    0.000000    0.000000    0.000000
    0.010000    0.010027    0.010126    0.010236    0.010277    0.010480
    0.010587    0.010818    0.010875    0.011477    0.011923    0.012556
 Highest eigenvalues
    1.973081    2.041086    2.098761    2.151756    2.167932    2.180773


........................................................................
.............................. CYCLE    1 ..............................
........................................................................

 iter      E             dE          RMSdq      gap      omega  full diag
   1   -100.7176896 -0.100718E+03  0.150E-05    0.88       0.0  T
   2   -100.7176896  0.709122E-11  0.148E-05    0.88     796.0  T
   3   -100.7176896 -0.127329E-10  0.872E-06    0.88    1351.8  T
     SCC iter.                  ...        0 min,  0.026 sec
     gradient                   ...        0 min,  0.069 sec
 * total energy  :   -99.3495662 Eh     change       -0.2657430E-10 Eh
   gradient norm :     0.0022568 Eh/α   predicted     0.0000000E+00 (-100.00%)
   displ. norm   :     0.0588033 α      lambda       -0.7188775E-04
   maximum displ.:     0.0195686 α      in ANC's #1, #12, #6, ...

   *** GEOMETRY OPTIMIZATION CONVERGED AFTER 1 ITERATIONS ***

------------------------------------------------------------------------
 total energy gain   :        -0.0000000 Eh       -0.0000 kcal/mol
 total RMSD          :         0.0000000 a0        0.0000 Å
 total power (kW/mol):        -0.0000001 (step)   -0.0000 (real)
------------------------------------------------------------------------

 ANCopt (total)                0 d,  0 h,  0 min,  0.182 sec
 optimizer setup                ...        0 min,  0.000 sec (  0.114%)
 model hessian                  ...        0 min,  0.053 sec ( 29.223%)
 ANC generation                 ...        0 min,  0.006 sec (  3.563%)
 coordinate transformation      ...        0 min,  0.000 sec (  0.025%)
 single point calculation       ...        0 min,  0.119 sec ( 65.589%)
 optimization log               ...        0 min,  0.002 sec (  1.051%)
 hessian update                 ...        0 min,  0.000 sec (  0.001%)
 rational function              ...        0 min,  0.000 sec (  0.107%)

================
 final structure:
================
72
 xtb: 6.6.1 (8d0f1dd)
N           -1.07102491103189        2.51801076134989        1.82547621959333
C           -1.31621940761446        1.70117740561519        0.91057242747683
C           -2.59155296983303        1.67956083245473        0.11269237266035
C           -3.32874967615670        0.37526185599945        0.36947075059135
C           -4.34565721586324       -0.03525197421244       -0.49460650997232
C           -5.05653513556361       -1.20261863179859       -0.27223212428931
O           -6.03612459454974       -1.68261054575427       -1.06754326635090
C           -6.41302376648217       -0.95602933055629       -2.21276953178627
C           -4.76413206833038       -1.99368093828401        0.87143124738235
O           -5.51796042181737       -3.10189520766635        1.01668105088512
C           -5.35828005784221       -3.89255542194818        2.17146494559579
C           -3.75837948132131       -1.57710121410928        1.72916445033029
C           -3.04837408150985       -0.41033052115641        1.47759973567722
C           -2.16522875589582        1.78356351943049       -1.37558327443251
C           -1.54961103368730        0.50524484987159       -1.97580397642865
C           -0.11468156190434        0.31850969285589       -1.63514415104540
N            0.45210649427486       -0.81316386267723       -1.21776299079574
C            1.76473620306799       -1.05842836576433       -1.20304169939902
C            2.81732045764441       -0.27103544869787       -1.91782672459287
C            4.00583494564173        0.04685006138376       -1.04597048276520
C            4.18151221583666        1.44747098118538       -0.57690952038056
C            5.43363343432308        1.68319190605080        0.19105465894981
C            6.32074026569402        0.69830977457133        0.47711598750490
O            7.47882582568822        0.83970555548379        1.15305192078222
C            7.85184616537023        2.12271753457297        1.60065752569477
C            6.06445783852572       -0.64997453326582        0.03279458792213
O            6.99115655285866       -1.54579813269090        0.37941893012795
C            6.87420577153587       -2.88715594102099       -0.04097158427626
C            4.91660975681055       -0.91727731959640       -0.72978964876928
C           -0.41278257088779       -1.87139063377965       -0.71251313160792
C           -3.56448565926587        2.84670140231123        0.45999895987657
C           -4.06485929214307        2.75804818528305        1.89996179827486
C           -2.96131977375642        4.22714760609549        0.21431223265405
H           -4.59179994125683        0.57398537241605       -1.34809720838513
H           -6.79652750874940        0.03522370447861       -1.95281104168307
H           -7.20659882912865       -1.53714724514635       -2.67860886147491
H           -5.58029213381306       -0.85409184852969       -2.91675283862520
H           -5.53202468571383       -3.31137452958962        3.08186168855981
H           -6.10953310939370       -4.67615106183978        2.09481366326253
H           -4.36342803404127       -4.34733732010543        2.21203099222463
H           -3.52173645725015       -2.15115977618287        2.61012235175252
H           -2.28939556627291       -0.10321411005610        2.18090780389104
H           -3.04186650275400        2.05056618402475       -1.96503925905605
H           -1.44695436566563        2.59822412262143       -1.47553016309438
H           -2.15345686705376       -0.35672646456738       -1.70194271984117
H           -1.61209298341684        0.61552458073572       -3.06660221650286
H           -0.59616049505132        0.93943485257171        0.56616277778791
H            0.54493708655932        1.12166865656697       -1.91901493468625
H            2.08628507788508       -1.96377093175370       -0.71998372427144
H            3.32451385896691        1.75381059149749        0.04198475827261
H            2.41396084576319        0.64859867774781       -2.33640023664659
H            3.17320155295702       -0.88467322500896       -2.75733228518896
H            4.15774655274647        2.12746255719124       -1.44173997233122
H            5.60647485440551        2.69780771079821        0.51004488565910
H            7.13849937297921        2.51309235692549        2.33212438356434
H            7.94405534694605        2.82546079497732        0.76782212130163
H            8.82281213547114        1.99555592037062        2.07487189212767
H            7.74292572423854       -3.39853244468838        0.36933447580930
H            5.96322443627359       -3.35194427870426        0.34890982572457
H            6.88998176466904       -2.96523071713716       -1.13212442102850
H            4.75859111115243       -1.92026277719230       -1.09728440525478
H           -0.89993508165363       -2.38243469538142       -1.54338173276833
H           -1.17661094941239       -1.46222582417522       -0.05010169887209
H            0.17679076298268       -2.59951549979981       -0.16086208648321
H           -4.43000445640351        2.72915839402656       -0.20310154198509
H           -3.23569227973743        2.87740931682128        2.59011399586847
H           -4.55178645372056        1.80497361656067        2.09114354373074
H           -4.78475616237702        3.55136645157147        2.08373960506657
H           -2.08155568869891        4.36712355355891        0.83483636402250
H           -2.69345948245158        4.37542677044259       -0.82831810687274
H           -3.69101954510049        4.98723107595870        0.48136450537848
H           -0.16480079976634        2.45565310903217        2.27965347844769

 Bond Distances (Angstroems)
 ---------------------------
N1-C2=1.2508         N1-H72=1.0156        C2-N1=1.2508         C2-C3=1.5045         C2-H47=1.1033        C3-C2=1.5045         
C3-C4=1.5201         C3-C14=1.5516        C3-C31=1.5587        C4-C3=1.5201         C4-C5=1.3962         C4-C13=1.3870        
C5-C4=1.3962         C5-C6=1.3848         C5-H34=1.0771        C6-C5=1.3848         C6-O7=1.3500         C6-C9=1.4210         
O7-C6=1.3500         O7-C8=1.4077         C8-O7=1.4077         C8-H35=1.0942        C8-H36=1.0883        C8-H37=1.0952        
C9-C6=1.4210         C9-O10=1.3481        C9-C12=1.3859        O10-C9=1.3481        O10-C11=1.4086       C11-O10=1.4086       
C11-H38=1.0940       C11-H39=1.0882       C11-H40=1.0946       C12-C9=1.3859        C12-C13=1.3888       C12-H41=1.0778       
C13-C4=1.3870        C13-C12=1.3888       C13-H42=1.0794       C14-C3=1.5516        C14-C15=1.5406       C14-H43=1.0896       
C14-H44=1.0907       C15-C14=1.5406       C15-C16=1.4866       C15-H45=1.0875       C15-H46=1.0981       C16-C15=1.4866       
C16-N17=1.3327       C16-H48=1.0774       N17-C16=1.3327       N17-C18=1.3354       N17-C30=1.4571       C18-N17=1.3354       
C18-C19=1.4963       C18-H49=1.0754       C19-C18=1.4963       C19-C20=1.5079       C19-H51=1.0879       C19-H52=1.0991       
C20-C19=1.5079       C20-C21=1.4875       C20-C29=1.3635       C21-C20=1.4875       C21-C22=1.4877       C21-H50=1.1006       
C21-H53=1.1004       C22-C21=1.4877       C22-C23=1.3560       C22-H54=1.0775       C23-C22=1.3560       C23-O24=1.3483       
C23-C26=1.4426       O24-C23=1.3483       O24-C25=1.4091       C25-O24=1.4091       C25-H55=1.0938       C25-H56=1.0936       
C25-H57=1.0880       C26-C23=1.4426       C26-O27=1.3347       C26-C29=1.4038       O27-C26=1.3347       O27-C28=1.4105       
C28-O27=1.4105       C28-H58=1.0884       C28-H59=1.0945       C28-H60=1.0941       C29-C20=1.3635       C29-C26=1.4038       
C29-H61=1.0798       C30-N17=1.4571       C30-H62=1.0903       C30-H63=1.0907       C30-H64=1.0872       C31-C3=1.5587        
C31-C32=1.5270       C31-C33=1.5264       C31-H65=1.0967       C32-C31=1.5270       C32-H66=1.0854       C32-H67=1.0872       
C32-H68=1.0869       C33-C31=1.5264       C33-H69=1.0856       C33-H70=1.0867       C33-H71=1.0870       H34-C5=1.0771        
H35-C8=1.0942        H36-C8=1.0883        H37-C8=1.0952        H38-C11=1.0940       H39-C11=1.0882       H40-C11=1.0946       
H41-C12=1.0778       H42-C13=1.0794       H43-C14=1.0896       H44-C14=1.0907       H45-C15=1.0875       H46-C15=1.0981       
H47-C2=1.1033        H48-C16=1.0774       H49-C18=1.0754       H50-C21=1.1006       H51-C19=1.0879       H52-C19=1.0991       
H53-C21=1.1004       H54-C22=1.0775       H55-C25=1.0938       H56-C25=1.0936       H57-C25=1.0880       H58-C28=1.0884       
H59-C28=1.0945       H60-C28=1.0941       H61-C29=1.0798       H62-C30=1.0903       H63-C30=1.0907       H64-C30=1.0872       
H65-C31=1.0967       H66-C32=1.0854       H67-C32=1.0872       H68-C32=1.0869       H69-C33=1.0856       H70-C33=1.0867       
H71-C33=1.0870       H72-N1=1.0156        
 C  H  Rav=1.0893 sigma=0.0070  Rmin=1.0754  Rmax=1.1033    38
 C  C  Rav=1.4602 sigma=0.0660  Rmin=1.3560  Rmax=1.5587    22
 N  H  Rav=1.0156 sigma=0.0000  Rmin=1.0156  Rmax=1.0156     1
 N  C  Rav=1.3440 sigma=0.0736  Rmin=1.2508  Rmax=1.4571     4
 O  C  Rav=1.3771 sigma=0.0321  Rmin=1.3347  Rmax=1.4105     8

 selected bond angles (degree)
 --------------------
H72-N1-C2=117.51               C3-C2-N1=124.30                H47-C2-N1=123.45               H47-C2-C3=112.19               
C4-C3-C2=109.50                C14-C3-C2=105.95               C14-C3-C4=110.66               C31-C3-C2=113.59               
C31-C3-C4=107.59               C31-C3-C14=109.58              C5-C4-C3=120.07                C13-C4-C3=121.53               
C13-C4-C5=118.37               C6-C5-C4=121.49                H34-C5-C4=119.38               H34-C5-C6=119.13               
O7-C6-C5=125.28                C9-C6-C5=119.53                C9-C6-O7=115.18                C8-O7-C6=119.34                
H35-C8-O7=111.60               H36-C8-O7=105.54               H36-C8-H35=109.26              H37-C8-O7=111.56               
H37-C8-H35=109.57              H37-C8-H36=109.21              O10-C9-C6=115.42               C12-C9-C6=118.69               
C12-C9-O10=125.89              C11-O10-C9=119.10              

 selected dihedral angles (degree)
 ---------------------------------
C3-C2-N1-H72=181.69           H47-C2-N1-H72=358.80          C4-C3-C2-N1=243.80            C4-C3-C2-H47= 66.41           
C14-C3-C2-N1=124.43           C14-C3-C2-H47=307.04          C31-C3-C2-N1=  4.10           C31-C3-C2-H47=186.70          
C5-C4-C3-C2=196.40            C5-C4-C3-C14=312.83           C5-C4-C3-C31= 72.51           C13-C4-C3-C2= 18.60           
C13-C4-C3-C14=135.03          C13-C4-C3-C31=254.71          C6-C5-C4-C3=181.46            C6-C5-C4-C13=359.33           
H34-C5-C4-C3=  0.77           H34-C5-C4-C13=178.64          O7-C6-C5-C4=181.19            O7-C6-C5-H34=  1.88           
C9-C6-C5-C4=  1.05            C9-C6-C5-H34=181.74           C8-O7-C6-C5=358.76            C8-O7-C6-C9=178.90            
H35-C8-O7-C6=298.62           H36-C8-O7-C6=180.04           H37-C8-O7-C6= 61.55           O10-C9-C6-C5=179.12           
O10-C9-C6-O7=358.99           C12-C9-C6-C5=359.31           C12-C9-C6-O7=179.19           C11-O10-C9-C6=184.41          
C11-O10-C9-C12=  4.20         
           -------------------------------------------------
          |                Final Singlepoint                |
           -------------------------------------------------

          ...................................................
          :                      SETUP                      :
          :.................................................:
          :  # basis functions                 171          :
          :  # atomic orbitals                 171          :
          :  # shells                          105          :
          :  # electrons                       180          :
          :  max. iterations                   250          :
          :  Hamiltonian                  GFN2-xTB          :
          :  restarted?                      false          :
          :  GBSA solvation                  false          :
          :  PC potential                    false          :
          :  electronic temp.         5000.0000000     K    :
          :  accuracy                    1.0000000          :
          :  -> integral cutoff          0.2500000E+02      :
          :  -> integral neglect         0.1000000E-07      :
          :  -> SCF convergence          0.1000000E-05 Eh   :
          :  -> wf. convergence          0.1000000E-03 e    :
          :  Broyden damping             0.4000000          :
          ...................................................

 iter      E             dE          RMSdq      gap      omega  full diag
   1   -100.7176896 -0.100718E+03  0.716E-06    0.88       0.0  T
   2   -100.7176896  0.622435E-11  0.995E-06    0.88    1184.7  T
   3   -100.7176896 -0.111271E-10  0.267E-06    0.88    4411.8  T

   *** convergence criteria satisfied after 3 iterations ***

         #    Occupation            Energy/Eh            Energy/eV
      -------------------------------------------------------------
         1        2.0000           -0.8232341             -22.4013
       ...           ...                  ...                  ...
        84        1.9949           -0.5079885             -13.8231
        85        1.9936           -0.5044501             -13.7268
        86        1.9790           -0.4854410             -13.2095
        87        1.9710           -0.4802645             -13.0687
        88        1.9356           -0.4673724             -12.7179
        89        1.8627           -0.4547707             -12.3749
        90        1.5844           -0.4346743             -11.8281 (HOMO)
        91        0.6574           -0.4021796             -10.9439 (LUMO)
        92        0.0212           -0.3416328              -9.2963
        93        0.0119           -0.3325015              -9.0478
        94        0.0047           -0.3175666              -8.6414
        95        0.0032           -0.3114009              -8.4737
       ...           ...                  ...                  ...
       171                          0.5766306              15.6909
      -------------------------------------------------------------
                  HL-Gap            0.0324947 Eh            0.8842 eV
             Fermi-level           -0.4134865 Eh          -11.2515 eV

 SCC (total)                   0 d,  0 h,  0 min,  0.116 sec
 SCC setup                      ...        0 min,  0.001 sec (  0.748%)
 Dispersion                     ...        0 min,  0.001 sec (  1.063%)
 classical contributions        ...        0 min,  0.000 sec (  0.368%)
 integral evaluation            ...        0 min,  0.018 sec ( 15.473%)
 iterations                     ...        0 min,  0.026 sec ( 22.564%)
 molecular gradient             ...        0 min,  0.069 sec ( 59.293%)
 printout                       ...        0 min,  0.001 sec (  0.476%)

         :::::::::::::::::::::::::::::::::::::::::::::::::::::
         ::                     SUMMARY                     ::
         :::::::::::::::::::::::::::::::::::::::::::::::::::::
         :: total energy             -99.349566243904 Eh    ::
         :: gradient norm              0.002256814413 Eh/a0 ::
         :: HOMO-LUMO gap              0.884225212429 eV    ::
         ::.................................................::
         :: SCC energy              -100.717689550173 Eh    ::
         :: -> isotropic ES            0.105782861432 Eh    ::
         :: -> anisotropic ES          0.005656847090 Eh    ::
         :: -> anisotropic XC          0.043994583156 Eh    ::
         :: -> dispersion             -0.074658923729 Eh    ::
         :: repulsion energy           1.366599429888 Eh    ::
         :: add. restraining           0.000000000000 Eh    ::
         :: total charge               1.000000000028 e     ::
         :::::::::::::::::::::::::::::::::::::::::::::::::::::

           -------------------------------------------------
          |                Property Printout                |
           -------------------------------------------------

    * Orbital Energies and Occupations

         #    Occupation            Energy/Eh            Energy/eV
      -------------------------------------------------------------
         1        2.0000           -0.8232341             -22.4013
       ...           ...                  ...                  ...
        78        1.9988           -0.5311339             -14.4529
        79        1.9982           -0.5240895             -14.2612
        80        1.9981           -0.5238045             -14.2534
        81        1.9973           -0.5181173             -14.0987
        82        1.9971           -0.5169387             -14.0666
        83        1.9955           -0.5100695             -13.8797
        84        1.9949           -0.5079885             -13.8231
        85        1.9936           -0.5044501             -13.7268
        86        1.9790           -0.4854410             -13.2095
        87        1.9710           -0.4802645             -13.0687
        88        1.9356           -0.4673724             -12.7179
        89        1.8627           -0.4547707             -12.3749
        90        1.5844           -0.4346743             -11.8281 (HOMO)
        91        0.6574           -0.4021796             -10.9439 (LUMO)
        92        0.0212           -0.3416328              -9.2963
        93        0.0119           -0.3325015              -9.0478
        94        0.0047           -0.3175666              -8.6414
        95        0.0032           -0.3114009              -8.4737
        96        0.0027           -0.3086928              -8.4000
        97        0.0000           -0.2305957              -6.2748
        98        0.0000           -0.1859231              -5.0592
        99                         -0.1152438              -3.1359
       100                         -0.0739442              -2.0121
       101                         -0.0637800              -1.7355
       ...                                ...                  ...
       171                          0.5766306              15.6909
      -------------------------------------------------------------
                  HL-Gap            0.0324947 Eh            0.8842 eV
             Fermi-level           -0.4134865 Eh          -11.2515 eV

     #   Z          covCN         q      C6AA      α(0)
     1   7 N        1.774    -0.275    27.962     7.830
     2   6 C        2.827     0.102    25.723     8.311
     3   6 C        3.907     0.007    20.408     6.421
     4   6 C        2.975     0.003    27.962     8.674
     5   6 C        2.920    -0.080    29.990     8.980
     6   6 C        2.862     0.129    25.169     8.223
     7   8 O        1.706    -0.230    17.821     5.700
     8   6 C        3.644     0.028    20.439     6.498
     9   6 C        2.864     0.129    25.171     8.224
    10   8 O        1.706    -0.229    17.790     5.695
    11   6 C        3.645     0.027    20.456     6.500
    12   6 C        2.913    -0.073    29.829     8.956
    13   6 C        2.921    -0.053    29.309     8.878
    14   6 C        3.811    -0.064    21.722     6.634
    15   6 C        3.801    -0.066    21.773     6.643
    16   6 C        2.858    -0.045    29.118     8.845
    17   7 N        2.729     0.078    19.886     6.623
    18   6 C        2.864    -0.052    29.282     8.870
    19   6 C        3.808    -0.067    21.786     6.644
    20   6 C        2.954     0.008    27.851     8.656
    21   6 C        3.812    -0.064    21.711     6.632
    22   6 C        2.901    -0.081    30.019     8.984
    23   6 C        2.850     0.135    25.053     8.203
    24   8 O        1.706    -0.233    17.870     5.707
    25   6 C        3.646     0.024    20.501     6.507
    26   6 C        2.861     0.137    25.001     8.196
    27   8 O        1.706    -0.197    17.280     5.612
    28   6 C        3.644     0.021    20.562     6.518
    29   6 C        2.903    -0.073    29.825     8.955
    30   6 C        3.721    -0.074    22.040     6.705
    31   6 C        3.853    -0.007    20.667     6.466
    32   6 C        3.756    -0.118    22.807     6.809
    33   6 C        3.755    -0.118    22.819     6.811
    34   1 H        0.926     0.053     2.284     2.363
    35   1 H        0.924     0.053     2.278     2.360
    36   1 H        0.925     0.080     1.976     2.198
    37   1 H        0.924     0.046     2.365     2.405
    38   1 H        0.924     0.055     2.262     2.352
    39   1 H        0.925     0.081     1.973     2.197
    40   1 H        0.924     0.049     2.329     2.386
    41   1 H        0.926     0.053     2.287     2.365
    42   1 H        0.926     0.041     2.442     2.444
    43   1 H        0.925     0.054     2.265     2.354
    44   1 H        0.924     0.050     2.319     2.381
    45   1 H        0.925     0.056     2.251     2.346
    46   1 H        0.923     0.063     2.170     2.304
    47   1 H        0.923     0.005     2.977     2.698
    48   1 H        0.926     0.049     2.329     2.387
    49   1 H        0.926     0.050     2.325     2.385
    50   1 H        0.923     0.079     1.994     2.208
    51   1 H        0.925     0.059     2.215     2.328
    52   1 H        0.923     0.073     2.053     2.241
    53   1 H        0.923     0.082     1.963     2.191
    54   1 H        0.926     0.061     2.184     2.311
    55   1 H        0.924     0.052     2.296     2.369
    56   1 H        0.924     0.053     2.285     2.364
    57   1 H        0.925     0.083     1.948     2.182
    58   1 H        0.925     0.089     1.893     2.152
    59   1 H        0.924     0.057     2.229     2.335
    60   1 H        0.924     0.061     2.186     2.312
    61   1 H        0.926     0.057     2.229     2.335
    62   1 H        0.924     0.081     1.972     2.196
    63   1 H        0.924     0.083     1.948     2.182
    64   1 H        0.925     0.079     1.991     2.207
    65   1 H        0.924     0.036     2.503     2.474
    66   1 H        0.925     0.067     2.123     2.279
    67   1 H        0.925     0.035     2.518     2.481
    68   1 H        0.925     0.050     2.321     2.382
    69   1 H        0.925     0.062     2.178     2.308
    70   1 H        0.925     0.035     2.522     2.484
    71   1 H        0.925     0.053     2.288     2.365
    72   1 H        0.860     0.151     1.395     1.850

 Mol. C6AA /au·bohr⁶  :      47446.244050
 Mol. C8AA /au·bohr⁸  :    1082152.649164
 Mol. α(0) /au        :        334.371260


Wiberg/Mayer (AO) data.
largest (>0.10) Wiberg bond orders for each atom

 ---------------------------------------------------------------------------
     #   Z sym  total        # sym  WBO       # sym  WBO       # sym  WBO
 ---------------------------------------------------------------------------
     1   7 N    3.017 --     2 C    1.950    72 H    0.944
     2   6 C    3.935 --     1 N    1.950     3 C    0.994    47 H    0.919
     3   6 C    3.974 --     2 C    0.994     4 C    0.972    14 C    0.956
                            31 C    0.942
     4   6 C    3.947 --    13 C    1.410     5 C    1.369     3 C    0.972
     5   6 C    3.961 --     6 C    1.400     4 C    1.369    34 H    0.958
     6   6 C    3.902 --     5 C    1.400     9 C    1.222     7 O    1.097
     7   8 O    2.252 --     6 C    1.097     8 C    0.979
     8   6 C    3.933 --     7 O    0.979    36 H    0.977    37 H    0.974
                            35 H    0.973
     9   6 C    3.899 --    12 C    1.391     6 C    1.222    10 O    1.101
    10   8 O    2.250 --     9 C    1.101    11 C    0.977
    11   6 C    3.931 --    10 O    0.977    39 H    0.977    38 H    0.973
                            40 H    0.973
    12   6 C    3.961 --    13 C    1.406     9 C    1.391    41 H    0.964
    13   6 C    3.952 --     4 C    1.410    12 C    1.406    42 H    0.963
    14   6 C    3.975 --    15 C    0.984    44 H    0.972    43 H    0.968
                             3 C    0.956
    15   6 C    3.986 --    16 C    1.047    14 C    0.984    45 H    0.963
                            46 H    0.940
    16   6 C    3.661 --    17 N    1.334    15 C    1.047    48 H    0.956
                            18 C    0.216
    17   7 N    3.721 --    16 C    1.334    18 C    1.331    30 C    0.981
    18   6 C    3.625 --    17 N    1.331    19 C    1.022    49 H    0.964
                            16 C    0.216
    19   6 C    3.987 --    18 C    1.022    20 C    1.000    51 H    0.962
                            52 H    0.931
    20   6 C    3.720 --    29 C    1.568    21 C    1.042    19 C    1.000
    21   6 C    3.985 --    22 C    1.044    20 C    1.042    53 H    0.919
                            50 H    0.917
    22   6 C    3.794 --    23 C    1.578    21 C    1.044    54 H    0.963
                            24 O    0.107
    23   6 C    3.936 --    22 C    1.578    26 C    1.132    24 O    1.096
    24   8 O    2.262 --    23 C    1.096    25 C    0.976    22 C    0.107
    25   6 C    3.931 --    57 H    0.977    24 O    0.976    55 H    0.974
                            56 H    0.974
    26   6 C    3.681 --    29 C    1.284    27 O    1.152    23 C    1.132
    27   8 O    2.268 --    26 C    1.152    28 C    0.971
    28   6 C    3.925 --    58 H    0.976    59 H    0.972    60 H    0.972
                            27 O    0.971
    29   6 C    3.976 --    20 C    1.568    26 C    1.284    61 H    0.958
    30   6 C    3.951 --    17 N    0.981    64 H    0.976    62 H    0.968
                            63 H    0.966
    31   6 C    3.972 --    32 C    1.008    33 C    1.008    65 H    0.961
                             3 C    0.942
    32   6 C    3.979 --    31 C    1.008    67 H    0.982    68 H    0.981
                            66 H    0.975
    33   6 C    3.981 --    31 C    1.008    70 H    0.983    71 H    0.980
                            69 H    0.976
    34   1 H    0.996 --     5 C    0.958
    35   1 H    0.993 --     8 C    0.973
    36   1 H    0.993 --     8 C    0.977
    37   1 H    0.994 --     8 C    0.974
    38   1 H    0.993 --    11 C    0.973
    39   1 H    0.993 --    11 C    0.977
    40   1 H    0.993 --    11 C    0.973
    41   1 H    0.995 --    12 C    0.964
    42   1 H    0.998 --    13 C    0.963
    43   1 H    0.995 --    14 C    0.968
    44   1 H    0.997 --    14 C    0.972
    45   1 H    0.996 --    15 C    0.963
    46   1 H    0.976 --    15 C    0.940
    47   1 H    0.984 --     2 C    0.919
    48   1 H    0.997 --    16 C    0.956
    49   1 H    0.997 --    18 C    0.964
    50   1 H    0.955 --    21 C    0.917
    51   1 H    0.995 --    19 C    0.962
    52   1 H    0.969 --    19 C    0.931
    53   1 H    0.957 --    21 C    0.919
    54   1 H    0.995 --    22 C    0.963
    55   1 H    0.995 --    25 C    0.974
    56   1 H    0.995 --    25 C    0.974
    57   1 H    0.992 --    25 C    0.977
    58   1 H    0.992 --    28 C    0.976
    59   1 H    0.991 --    28 C    0.972
    60   1 H    0.990 --    28 C    0.972
    61   1 H    0.996 --    29 C    0.958
    62   1 H    0.993 --    30 C    0.968
    63   1 H    0.992 --    30 C    0.966
    64   1 H    0.994 --    30 C    0.976
    65   1 H    0.992 --    31 C    0.961
    66   1 H    0.991 --    32 C    0.975
    67   1 H    0.997 --    32 C    0.982
    68   1 H    0.994 --    32 C    0.981
    69   1 H    0.993 --    33 C    0.976
    70   1 H    0.997 --    33 C    0.983
    71   1 H    0.994 --    33 C    0.980
    72   1 H    0.971 --     1 N    0.944
 ---------------------------------------------------------------------------

Topologies differ in total number of bonds
Writing topology from bond orders to xtbtopo.mol

molecular dipole:
                 x           y           z       tot (Debye)
 q only:        1.612      -0.661      -0.922
   full:        1.830      -0.845      -1.153       5.903
molecular quadrupole (traceless):
                xx          xy          yy          xz          yz          zz
 q only:       52.293       4.770     -17.274       3.319      -3.009     -35.019
  q+dip:       48.338       6.014     -17.540       3.995      -6.233     -30.798
   full:       47.367       6.274     -17.748       1.852      -6.245     -29.619

           -------------------------------------------------
          |                Geometry Summary                 |
           -------------------------------------------------

      molecular mass/u    :      455.6105846
   center of mass at/Å    :       -0.0635686       0.0026369       0.0227024
  moments of inertia/u·Å² :        0.2413817E+04   0.1044455E+05   0.1141434E+05
rotational constants/cm⁻¹ :        0.6983807E-02   0.1614012E-02   0.1476882E-02

 * 62 selected distances

     #   Z          #   Z                                           value/Å
     1   7 N        2   6 C                                       1.2507543
     4   6 C        5   6 C                                       1.3961563
     5   6 C        6   6 C                                       1.3847538
     6   6 C        7   8 O                                       1.3500029
     7   8 O        8   6 C                                       1.4076636
     6   6 C        9   6 C                                       1.4210016
     9   6 C       10   8 O                                       1.3481446
    10   8 O       11   6 C                                       1.4086048
     9   6 C       12   6 C                                       1.3859234
     4   6 C       13   6 C                                       1.3869809
    12   6 C       13   6 C                                       1.3887932
    15   6 C       16   6 C                                       1.4865874
    16   6 C       17   7 N                                       1.3327194
    17   7 N       18   6 C                                       1.3354282
    22   6 C       23   6 C                                       1.3560172
    23   6 C       24   8 O                                       1.3483489
    24   8 O       25   6 C                                       1.4091185
    26   6 C       27   8 O                                       1.3346982
    27   8 O       28   6 C                                       1.4105484
    20   6 C       29   6 C                                       1.3634599
    26   6 C       29   6 C                                       1.4037596
    17   7 N       30   6 C                                       1.4571049
    31   6 C       32   6 C                                       1.5269992 (max)
    31   6 C       33   6 C                                       1.5263693
     5   6 C       34   1 H                                       1.0771272
     8   6 C       35   1 H                                       1.0941830
     8   6 C       36   1 H                                       1.0883317
     8   6 C       37   1 H                                       1.0951831
    11   6 C       38   1 H                                       1.0939748
    11   6 C       39   1 H                                       1.0882458
    11   6 C       40   1 H                                       1.0946246
    12   6 C       41   1 H                                       1.0777895
    13   6 C       42   1 H                                       1.0793569
    14   6 C       43   1 H                                       1.0896067
    14   6 C       44   1 H                                       1.0906785
    15   6 C       45   1 H                                       1.0874854
    15   6 C       46   1 H                                       1.0981378
     2   6 C       47   1 H                                       1.1033380
    16   6 C       48   1 H                                       1.0773783
    18   6 C       49   1 H                                       1.0753530 (min)
    21   6 C       50   1 H                                       1.1006001
    19   6 C       51   1 H                                       1.0879476
    19   6 C       52   1 H                                       1.0990780
    21   6 C       53   1 H                                       1.1004023
    22   6 C       54   1 H                                       1.0775316
    25   6 C       55   1 H                                       1.0937551
    25   6 C       56   1 H                                       1.0936021
    25   6 C       57   1 H                                       1.0880370
    28   6 C       58   1 H                                       1.0883619
    28   6 C       59   1 H                                       1.0944967
    28   6 C       60   1 H                                       1.0940563
    29   6 C       61   1 H                                       1.0798159
    30   6 C       62   1 H                                       1.0903332
    30   6 C       63   1 H                                       1.0907056
    30   6 C       64   1 H                                       1.0872358
    31   6 C       65   1 H                                       1.0966502
    32   6 C       66   1 H                                       1.0853918
    32   6 C       67   1 H                                       1.0871982
    32   6 C       68   1 H                                       1.0869130
    33   6 C       69   1 H                                       1.0856466
    33   6 C       70   1 H                                       1.0866527
    33   6 C       71   1 H                                       1.0869709

 * 4 distinct bonds (by element types)

   Z      Z             #   av. dist./Å        max./Å        min./Å
   1 H    6 C          38     1.0892678     1.1033380     1.0753530
   6 C    6 C          12     1.4189002     1.5269992     1.3560172
   6 C    7 N           4     1.3440017     1.4571049     1.2507543
   6 C    8 O           8     1.3771412     1.4105484     1.3346982


optimized geometry written to: xtbopt.xyz


           -------------------------------------------------
          | TOTAL ENERGY              -99.349566243904 Eh   |
          | GRADIENT NORM               0.002256814413 Eh/α |
          | HOMO-LUMO GAP               0.884225212429 eV   |
           -------------------------------------------------

------------------------------------------------------------------------
 * finished run on 2024/04/06 at 11:13:38.488     
------------------------------------------------------------------------
 total:
 * wall-time:     0 d,  0 h,  0 min,  0.472 sec
 *  cpu-time:     0 d,  0 h,  0 min,  0.444 sec
 * ratio c/w:     0.939 speedup
 SCF:
 * wall-time:     0 d,  0 h,  0 min,  0.121 sec
 *  cpu-time:     0 d,  0 h,  0 min,  0.121 sec
 * ratio c/w:     0.997 speedup
 ANC optimizer:
 * wall-time:     0 d,  0 h,  0 min,  0.306 sec
 *  cpu-time:     0 d,  0 h,  0 min,  0.299 sec
 * ratio c/w:     0.976 speedup

