72
 energy: -99.349566243900 gnorm: 0.002256791635 xtb: 6.6.1 (8d0f1dd)
N           -1.07102491103189        2.51801076134989        1.82547621959333
C           -1.31621940761446        1.70117740561519        0.91057242747683
C           -2.59155296983303        1.67956083245473        0.11269237266035
C           -3.32874967615670        0.37526185599945        0.36947075059135
C           -4.34565721586324       -0.03525197421244       -0.49460650997232
C           -5.05653513556361       -1.20261863179859       -0.27223212428931
O           -6.03612459454974       -1.68261054575427       -1.06754326635090
C           -6.41302376648217       -0.95602933055629       -2.21276953178627
C           -4.76413206833038       -1.99368093828401        0.87143124738235
O           -5.51796042181737       -3.10189520766635        1.01668105088512
C           -5.35828005784221       -3.89255542194818        2.17146494559579
C           -3.75837948132131       -1.57710121410928        1.72916445033029
C           -3.04837408150985       -0.41033052115641        1.47759973567722
C           -2.16522875589582        1.78356351943049       -1.37558327443251
C           -1.54961103368730        0.50524484987159       -1.97580397642865
C           -0.11468156190434        0.31850969285589       -1.63514415104540
N            0.45210649427486       -0.81316386267723       -1.21776299079574
C            1.76473620306799       -1.05842836576433       -1.20304169939902
C            2.81732045764441       -0.27103544869787       -1.91782672459287
C            4.00583494564173        0.04685006138376       -1.04597048276520
C            4.18151221583666        1.44747098118538       -0.57690952038056
C            5.43363343432308        1.68319190605080        0.19105465894981
C            6.32074026569402        0.69830977457133        0.47711598750490
O            7.47882582568822        0.83970555548379        1.15305192078222
C            7.85184616537023        2.12271753457297        1.60065752569477
C            6.06445783852572       -0.64997453326582        0.03279458792213
O            6.99115655285866       -1.54579813269090        0.37941893012795
C            6.87420577153587       -2.88715594102099       -0.04097158427626
C            4.91660975681055       -0.91727731959640       -0.72978964876928
C           -0.41278257088779       -1.87139063377965       -0.71251313160792
C           -3.56448565926587        2.84670140231123        0.45999895987657
C           -4.06485929214307        2.75804818528305        1.89996179827486
C           -2.96131977375642        4.22714760609549        0.21431223265405
H           -4.59179994125683        0.57398537241605       -1.34809720838513
H           -6.79652750874940        0.03522370447861       -1.95281104168307
H           -7.20659882912865       -1.53714724514635       -2.67860886147491
H           -5.58029213381306       -0.85409184852969       -2.91675283862520
H           -5.53202468571383       -3.31137452958962        3.08186168855981
H           -6.10953310939370       -4.67615106183978        2.09481366326253
H           -4.36342803404127       -4.34733732010543        2.21203099222463
H           -3.52173645725015       -2.15115977618287        2.61012235175252
H           -2.28939556627291       -0.10321411005610        2.18090780389104
H           -3.04186650275400        2.05056618402475       -1.96503925905605
H           -1.44695436566563        2.59822412262143       -1.47553016309438
H           -2.15345686705376       -0.35672646456738       -1.70194271984117
H           -1.61209298341684        0.61552458073572       -3.06660221650286
H           -0.59616049505132        0.93943485257171        0.56616277778791
H            0.54493708655932        1.12166865656697       -1.91901493468625
H            2.08628507788508       -1.96377093175370       -0.71998372427144
H            3.32451385896691        1.75381059149749        0.04198475827261
H            2.41396084576319        0.64859867774781       -2.33640023664659
H            3.17320155295702       -0.88467322500896       -2.75733228518896
H            4.15774655274647        2.12746255719124       -1.44173997233122
H            5.60647485440551        2.69780771079821        0.51004488565910
H            7.13849937297921        2.51309235692549        2.33212438356434
H            7.94405534694605        2.82546079497732        0.76782212130163
H            8.82281213547114        1.99555592037062        2.07487189212767
H            7.74292572423854       -3.39853244468838        0.36933447580930
H            5.96322443627359       -3.35194427870426        0.34890982572457
H            6.88998176466904       -2.96523071713716       -1.13212442102850
H            4.75859111115243       -1.92026277719230       -1.09728440525478
H           -0.89993508165363       -2.38243469538142       -1.54338173276833
H           -1.17661094941239       -1.46222582417522       -0.05010169887209
H            0.17679076298268       -2.59951549979981       -0.16086208648321
H           -4.43000445640351        2.72915839402656       -0.20310154198509
H           -3.23569227973743        2.87740931682128        2.59011399586847
H           -4.55178645372056        1.80497361656067        2.09114354373074
H           -4.78475616237702        3.55136645157147        2.08373960506657
H           -2.08155568869891        4.36712355355891        0.83483636402250
H           -2.69345948245158        4.37542677044259       -0.82831810687274
H           -3.69101954510049        4.98723107595870        0.48136450537848
H           -0.16480079976634        2.45565310903217        2.27965347844769
