72
 energy: -103.311561449270 gnorm: 0.095233047713 xtb: 6.6.1 (8d0f1dd)
N           -1.47909607567375        2.75571495763117        2.22948513452077
C           -1.55690839885830        2.16304520291183        1.14397725316398
C           -2.74359848208987        2.05767150486214        0.24448597110546
C           -3.31277472620326        0.64516089635094        0.32803434906008
C           -4.29948438526197        0.24582572107749       -0.57631874834198
C           -4.84552131513449       -1.02216631811404       -0.53415473601345
O           -5.79910004687686       -1.48250966319902       -1.37796431222211
C           -6.40604678834633       -0.61278344808699       -2.31087316047738
C           -4.39724091879359       -1.94534762240696        0.44651128103744
O           -4.98527671913862       -3.16286462823703        0.41458453144691
C           -4.65887649104245       -4.10145622931182        1.41417250950471
C           -3.42059092009392       -1.54382141841658        1.33973317122848
C           -2.88345787047990       -0.26110630987568        1.28004786597340
C           -2.19042298648696        2.30360538047708       -1.18042353194375
C           -1.26650879236300        1.17359664210362       -1.65551220814932
C            0.01101968662628        1.10780207692751       -0.90028025523182
N            0.62280079331683       -0.02798440096330       -0.57646266809042
C            2.00352680697352       -0.02803889527959       -0.15858905476624
C            2.92992663791289       -0.54026830709959       -1.27928365019366
C            4.35982259627996       -0.43192645662202       -0.83385580654227
C            5.07635545848875        0.73116840399062       -1.04140151589129
C            6.38868353712239        0.84176703587000       -0.60276870534106
C            7.00233107884252       -0.20905151988350        0.05808763603834
O            8.26968079125655       -0.21071696123339        0.52533298905981
C            9.07112951865805        0.92883665254890        0.32017069694745
C            6.27282686752143       -1.40409379851688        0.28029699039130
O            6.95055882476487       -2.38107340598107        0.92860692854622
C            6.31748377724121       -3.61612638381899        1.15322486370767
C            4.96581760199293       -1.49443930452426       -0.16231393238140
C           -0.05323652240351       -1.30275631707846       -0.62208357513190
C           -3.86834681500479        3.07845783622187        0.58719130504166
C           -4.49536242460225        2.77556151418383        1.94459172538068
C           -3.39295035402427        4.52895630880122        0.54909822374446
H           -4.65369417671265        0.94460807044323       -1.31362623213311
H           -6.83061470804019        0.26606575752996       -1.82029672514931
H           -7.19477350999897       -1.19815520643758       -2.77251847410126
H           -5.73105971983365       -0.26696337009885       -3.10985284028221
H           -4.87943035348751       -3.71728845835947        2.41458939302685
H           -5.28583230004964       -4.96825014875764        1.21583363631961
H           -3.60597052650344       -4.39876809104340        1.36099450760784
H           -3.06969020620112       -2.21707315347514        2.10688963184035
H           -2.14534114210342        0.02357978320576        2.01719473394467
H           -3.02006786287497        2.39011932497440       -1.87925215288791
H           -1.64448198613949        3.24776891394976       -1.19614569444591
H           -1.80941931197180        0.23320708160967       -1.62126507272918
H           -1.00279012216768        1.37664850956612       -2.70320127053983
H           -0.67626047048022        1.65178189155195        0.63976908047754
H            0.63888581368170        1.98596089566905       -0.93535813707893
H            2.11510550509365       -0.66316267430691        0.72353600219137
H            2.30493883005159        0.98674042141594        0.10750797639034
H            2.77073405365141        0.06587044937057       -2.17318784817591
H            2.68342179070053       -1.57635876325284       -1.51483007654403
H            4.62463705888700        1.56179257958443       -1.56215531680766
H            6.92564166323439        1.75714775797248       -0.79000074080371
H            8.65329443299938        1.80944986437165        0.81847503544340
H            9.20372801317067        1.14025906486171       -0.74528989567333
H           10.03635796952774        0.68978722419834        0.76237702354818
H            7.05754641320007       -4.23668856415019        1.65526911737834
H            5.44032341469422       -3.50809497114190        1.79994137370364
H            6.02295931014648       -4.09499213740490        0.21387945365370
H            4.40384028618066       -2.40205828662684       -0.00648785774216
H           -0.22099829736312       -1.62242059999764       -1.65401978325081
H           -1.01698173265030       -1.24252588225534       -0.11176260653611
H            0.55960663887707       -2.04885776723976       -0.12412913610397
H           -4.63959609157538        2.95257533343739       -0.17951728253110
H           -3.76406894297089        2.90696852443502        2.73530465071728
H           -4.87625418703320        1.75834036400551        1.98146596354806
H           -5.32243461225608        3.45740007837561        2.12341836853361
H           -2.60287612669147        4.69131738893698        1.27618374283102
H           -3.03929766219128        4.81724685195898       -0.43759788007531
H           -4.22454761267304        5.18126037839692        0.80528821323343
H           -0.60550881699287        2.78531057825481        2.74137419115460
72
 energy: -103.314789165617 gnorm: 0.033911119165 xtb: 6.6.1 (8d0f1dd)
N           -1.49637653563088        2.78912417111154        2.24491605746890
C           -1.56315877839367        2.15575517203211        1.16658403166030
C           -2.74524582962594        2.06131687178003        0.25190191493803
C           -3.31813976131934        0.65160014735414        0.33246533577278
C           -4.30100499867118        0.24818386696890       -0.57431236647871
C           -4.84442952752849       -1.02163510908472       -0.53636306754516
O           -5.80169179017421       -1.48674471578437       -1.38226287545409
C           -6.40467689718224       -0.61227643967701       -2.30661368490721
C           -4.39869276193166       -1.94273582393229        0.44321060822239
O           -4.98875681376919       -3.16617243958347        0.41180867557590
C           -4.65894075943856       -4.09998674062284        1.41191742475280
C           -3.42627352456314       -1.53960404392054        1.33905970130437
C           -2.89168636889322       -0.25608649041257        1.28316342721355
C           -2.19230983939189        2.30078709243108       -1.17762293465538
C           -1.26151300632705        1.18411846033243       -1.67655740904882
C            0.01269986780804        1.12442809560575       -0.90573447258791
N            0.63375614935024       -0.04432686130047       -0.56695870573561
C            2.00860285106057       -0.04053642541151       -0.16097678542609
C            2.93926817068797       -0.54437998765177       -1.28264191292383
C            4.36670695986760       -0.43665789985148       -0.84452673742257
C            5.08122564145364        0.72901847789672       -1.04536827436547
C            6.39068622826380        0.84129525066396       -0.60154342773904
C            7.00355537278723       -0.20952484319228        0.05936793244797
O            8.27801339157199       -0.21216889258354        0.52893738566388
C            9.07288783055434        0.92896064101815        0.32094566608105
C            6.27512695837775       -1.40302429091826        0.28070003272170
O            6.95541327231343       -2.38327245759560        0.93215398885910
C            6.31787750054470       -3.61561324523818        1.15378187041414
C            4.97148746373772       -1.49583566211508       -0.16690066678322
C           -0.04920366005477       -1.30955206633325       -0.62023867279904
C           -3.87423618809161        3.07799521398792        0.58412634048196
C           -4.49945363902040        2.77767281151743        1.94393284426662
C           -3.39715297265569        4.52804966810537        0.54962718525967
H           -4.65084943330548        0.94491310494498       -1.31742628663839
H           -6.83299284006887        0.26516992102915       -1.81314383847787
H           -7.19774422063649       -1.19454400439135       -2.77129192099867
H           -5.71143470574136       -0.27666806763887       -3.09004103199600
H           -4.87832756662700       -3.71405302728640        2.41258125840950
H           -5.28466613029289       -4.96897281937703        1.21597558977430
H           -3.60529914569315       -4.39476396572378        1.35930339105533
H           -3.07182798124740       -2.21560082481210        2.10197517932389
H           -2.14706573767907        0.02597756089409        2.01221893666183
H           -3.02481330326613        2.39374370305514       -1.87580442733958
H           -1.64346081450905        3.24356105771247       -1.19129365225425
H           -1.79789328747086        0.23841246208919       -1.62781050949902
H           -1.03101281314421        1.38570702343911       -2.73407940945478
H           -0.68656104557256        1.64570669019392        0.67457216982723
H            0.65462635797684        1.99076948410025       -0.97158600536889
H            2.12758980816550       -0.67154407527918        0.72490756524176
H            2.30051139323555        0.97794223991716        0.10451758985459
H            2.76892226267680        0.06539330533736       -2.17156624815236
H            2.68666574642700       -1.57888961709850       -1.51739150889092
H            4.62621115772474        1.56069633093894       -1.56225845473332
H            6.92752571124790        1.75780178929492       -0.78661407307959
H            8.65241185855572        1.80957952136605        0.81791207961930
H            9.20283068029421        1.14072715473808       -0.74543578014480
H           10.03955689872327        0.69316556939079        0.76237892925925
H            7.05591988453472       -4.23873995983632        1.65625832276398
H            5.43902410754497       -3.50666614908231        1.79851969275048
H            6.02204708777380       -4.09308934511617        0.21357932864126
H            4.40644410429301       -2.40133570300822       -0.00774855318877
H           -0.22062351699269       -1.62915541687629       -1.65374028209250
H           -1.01461457045942       -1.24384037077140       -0.11131774294508
H            0.55858375493924       -2.05957851370584       -0.12085166116908
H           -4.64803632237119        2.95665422732198       -0.18264024918235
H           -3.75967813959008        2.90592964343727        2.72781867709342
H           -4.87711188695859        1.75878312334414        1.98085896121875
H           -5.32721683726890        3.45952665443140        2.12687922058967
H           -2.60356677587092        4.68216732560336        1.27479204813317
H           -3.03952272643056        4.81278872615468       -0.43670445062911
H           -4.22633623940381        5.18448589681178        0.80602696007422
H           -0.61638511997427        2.78785559769829        2.75183639384330
72
 energy: -103.315458217571 gnorm: 0.020036937020 xtb: 6.6.1 (8d0f1dd)
N           -1.48085514244239        2.78078784301348        2.23465215050648
C           -1.54589084073628        2.14761752994271        1.14930985529373
C           -2.74097497239898        2.06030307978074        0.24765776261661
C           -3.30890074544803        0.64863145810362        0.32742233605490
C           -4.29664648013490        0.24666032472243       -0.57435838643857
C           -4.84097298104145       -1.02206227749560       -0.53749540456665
O           -5.80104070194583       -1.48663161390749       -1.38802282859953
C           -6.40559359993639       -0.61246931822452       -2.31065488188705
C           -4.39560311480530       -1.94248449943240        0.44156910120243
O           -4.99000873101778       -3.16886972929886        0.41364777245015
C           -4.65969832393539       -4.10093922419557        1.41317400304764
C           -3.42171244335028       -1.54206056150962        1.33686508989393
C           -2.88345071416651       -0.26069387783635        1.27825311624347
C           -2.19411114185203        2.30355144043235       -1.18323631794558
C           -1.26409175753819        1.18076916273935       -1.66819985112558
C            0.00325055224984        1.13438914590876       -0.89035041702865
N            0.63434613574588       -0.04997762550077       -0.55272503584316
C            2.00363599374055       -0.03335209414342       -0.15584355253997
C            2.93524224238806       -0.53864821394145       -1.27728509702678
C            4.35847754419145       -0.43200506453455       -0.83719031028393
C            5.07466262769865        0.73234632358417       -1.04063536377748
C            6.38534408728303        0.84259906895869       -0.60224673381847
C            6.99650400175006       -0.20875016295209        0.05734359399551
O            8.27618131881824       -0.21332681741807        0.52707226955886
C            9.06958751012871        0.92695401267915        0.31995153643269
C            6.26841169779699       -1.40001709941004        0.28083890575024
O            6.95351868048234       -2.38322760435986        0.93035331984691
C            6.31755681019536       -3.61525320451234        1.15290163368876
C            4.96380565722924       -1.49185778020992       -0.16138864343139
C           -0.05098876551152       -1.30701020162093       -0.62186491917013
C           -3.86531141744502        3.07621372172137        0.58679419320028
C           -4.49509200815422        2.77612118994693        1.94595521582962
C           -3.39393326486574        4.52945943923551        0.55048483459738
H           -4.65130466558427        0.94527209488127       -1.31440560204344
H           -6.83623017169049        0.26546213935356       -1.81890671538048
H           -7.20185196865112       -1.19755736965453       -2.76969281121206
H           -5.72272558782609       -0.27743501231894       -3.10033407180503
H           -4.87875800052547       -3.71674107461879        2.41512697517885
H           -5.28683009485951       -4.96922394112334        1.21697124324761
H           -3.60671103356559       -4.39874945976089        1.36140156402550
H           -3.07041857440354       -2.21713363850700        2.10273222714642
H           -2.14391845991621        0.02251866820738        2.01114573483891
H           -3.02576599710718        2.39344315767487       -1.88386904145037
H           -1.64346877516093        3.24617162044103       -1.19842168706629
H           -1.80092946844375        0.23241093929442       -1.61632019127237
H           -1.01952137254191        1.37589079187419       -2.72041680274996
H           -0.67799271461147        1.65299918230284        0.65017701924006
H            0.64421349987476        1.99838159575705       -0.93834877950012
H            2.12354753239326       -0.66185791605387        0.73225599767543
H            2.29421021207518        0.98732069090999        0.10913027617547
H            2.76535470891975        0.06943736940348       -2.16744005365885
H            2.67901619049260       -1.57276930458109       -1.51065844509374
H            4.61995289982384        1.56245613281987       -1.56057153674873
H            6.92418528944029        1.75752775105825       -0.79103229886971
H            8.65141145030399        1.80858272316382        0.81775890097029
H            9.20175400039243        1.14035250231648       -0.74624749267914
H           10.03558060515088        0.68894941198146        0.76187118626066
H            7.05814118531443       -4.23648434983303        1.65427502029439
H            5.43979183689027       -3.50863792940866        1.79976990690730
H            6.02104808712325       -4.09482106461778        0.21360758301562
H            4.39864814194583       -2.39802882979412       -0.00414224850342
H           -0.22227866451791       -1.62144006765818       -1.65816521754081
H           -1.01799580903230       -1.24475283804519       -0.11366004387221
H            0.55805080270477       -2.05700655563833       -0.12466167669570
H           -4.63956560479120        2.95375779282545       -0.17961967471440
H           -3.76037547747168        2.90567992891068        2.73419525320821
H           -4.87307426549897        1.75696376544762        1.98196256307587
H           -5.32429240812167        3.45766140843288        2.12301072301823
H           -2.60101313522307        4.68972239165161        1.27500964858215
H           -3.03780426546767        4.81557191675055       -0.43632038643062
H           -4.22631905623621        5.18194540126665        0.80559970559165
H           -0.58521492531516        2.76558096345977        2.71862893924092
72
 energy: -103.315905183595 gnorm: 0.011592441477 xtb: 6.6.1 (8d0f1dd)
N           -1.50637027429085        2.77648193498304        2.24259516639893
C           -1.55365934474271        2.15481097646217        1.15144473257767
C           -2.74577738296264        2.06027421234267        0.24766656360619
C           -3.31273647701971        0.64850457700595        0.33001588418234
C           -4.29967362560333        0.24669290927524       -0.57215875897327
C           -4.84412017247694       -1.02096509580329       -0.53228711897452
O           -5.80162534205449       -1.48482758406220       -1.38512819865559
C           -6.40279061226392       -0.61027973349015       -2.31062111215641
C           -4.39732480283188       -1.94103820805056        0.44616202289513
O           -4.98901686480129       -3.16796692765354        0.41565615856994
C           -4.65793690844035       -4.10080115649182        1.41338914196299
C           -3.42330435535370       -1.54145049759705        1.34183935747167
C           -2.88714886324662       -0.25939001702938        1.28311889850975
C           -2.19184116243191        2.30408953977431       -1.17940605944932
C           -1.26539265065545        1.17777444584879       -1.66263147789362
C            0.00493576062927        1.12903625488470       -0.89624917431774
N            0.63549372432077       -0.04976551143941       -0.56487642529766
C            2.00503136906504       -0.03358111552560       -0.16644514585528
C            2.93983612206234       -0.54304161810481       -1.28427115324144
C            4.36256508411143       -0.43496789391866       -0.83890882401427
C            5.07971200078737        0.72916560305590       -1.04289405454117
C            6.39012521533300        0.84081796298103       -0.60311185688236
C            7.00041454678129       -0.20991364891011        0.05718288255230
O            8.27869001911180       -0.21187424334092        0.52869689784998
C            9.07176838243569        0.92854299868352        0.32138013758853
C            6.27342172965517       -1.40205481759494        0.27869490601913
O            6.95620070011336       -2.38446263806955        0.93077957188881
C            6.31852202293458       -3.61541297140132        1.15362620602165
C            4.96914310393613       -1.49539377360269       -0.16498420807797
C           -0.05177699382108       -1.30494578108120       -0.62356926793324
C           -3.86908456897016        3.07700314852753        0.58598410061402
C           -4.49844083541184        2.77677419324598        1.94519263339493
C           -3.39511693587696        4.52949091698062        0.54909447786329
H           -4.65432178290271        0.94425861124955       -1.31317403734840
H           -6.83315870534626        0.26718681846423       -1.81886460602722
H           -7.19626108605114       -1.19561885068777       -2.77285256407856
H           -5.72530531170948       -0.26883334048135       -3.10298107922954
H           -4.87867096666217       -3.71815204975850        2.41549615517457
H           -5.28406604407895       -4.96932548599713        1.21554329799520
H           -3.60455674996679       -4.39747306372694        1.36139780707944
H           -3.07143793767159       -2.21609480498951        2.10795735431712
H           -2.14940932703995        0.02554765871952        2.01809581300936
H           -3.02212308248292        2.39326391914578       -1.87996015777101
H           -1.64273862124281        3.24757158385722       -1.19281889835698
H           -1.80628595928484        0.23189428877317       -1.62040136349394
H           -1.00995302926098        1.37787252127152       -2.70987120187098
H           -0.68353750126015        1.65636231763752        0.65550457130238
H            0.64920779140376        1.98847805948944       -0.94662118524345
H            2.12200176322798       -0.66526708010020        0.72007117305601
H            2.30351372781513        0.98408054236855        0.10154187513927
H            2.77461656926698        0.06325186450222       -2.17666691804032
H            2.68619422276135       -1.57796083118501       -1.51864726342319
H            4.62634902895952        1.55906930121921       -1.56414720569218
H            6.92785759001088        1.75689665353830       -0.78895242255332
H            8.65378367340429        1.81065235304864        0.81846611643953
H            9.20519460418405        1.14115345546462       -0.74476868756423
H           10.03798247773529        0.69183265441802        0.76360528167088
H            7.05705351595521       -4.23741767856713        1.65695261170291
H            5.43989182952128       -3.50719159875761        1.79904246253569
H            6.02365481451825       -4.09548831059332        0.21415591133344
H            4.40638030806375       -2.40345014453167       -0.01027650859581
H           -0.22428605437372       -1.62761558814717       -1.65637609406900
H           -1.01672335561476       -1.24078827173120       -0.11200720748077
H            0.55901603728025       -2.05123745506027       -0.12288003263246
H           -4.64255375001669        2.95346935494872       -0.18076413691145
H           -3.76425929597312        2.90630619456488        2.73367203339892
H           -4.87905577920853        1.75872702114965        1.98140877961586
H           -5.32557882334862        3.45953835178345        2.12327372284230
H           -2.60335651735961        4.68932216479601        1.27495391381914
H           -3.03954036716056        4.81640917179618       -0.43777053808143
H           -4.22641019451086        5.18236094490363        0.80475717959912
H           -0.61563566034795        2.77727006515756        2.73407378186259
72
 energy: -103.316007817869 gnorm: 0.009581745186 xtb: 6.6.1 (8d0f1dd)
N           -1.49384970259427        2.78054099208711        2.24136712141132
C           -1.54816293188469        2.15616698131157        1.15423915264490
C           -2.74247302790547        2.06034287702348        0.25042458342956
C           -3.31397256579933        0.64977098859463        0.33021740239406
C           -4.29880384077204        0.24735702015572       -0.57466381954359
C           -4.84304327209046       -1.02100951246615       -0.53385131541434
O           -5.80228058651047       -1.48601359529852       -1.38231228022413
C           -6.40356127638585       -0.61288024439854       -2.30789629407573
C           -4.39608669374033       -1.94127695394537        0.44338427135470
O           -4.98826007185900       -3.16702922441401        0.41259177220162
C           -4.65931128720399       -4.09912483192674        1.41152619439259
C           -3.42161756873289       -1.54203531018857        1.33835320125977
C           -2.88674202538759       -0.25933179568598        1.28106625048371
C           -2.19197343641479        2.30136578314608       -1.17916078305598
C           -1.26467694539815        1.17914642488463       -1.67127887271258
C            0.00708489945057        1.12647276864772       -0.90674419361987
N            0.63337250844548       -0.04658893327668       -0.56756446506852
C            2.00145962235516       -0.03310317497236       -0.15850157694402
C            2.93548142791329       -0.54078723719156       -1.27765166342539
C            4.36050678405232       -0.43330283524318       -0.83690630790100
C            5.07773056217998        0.73076295798628       -1.04147456411296
C            6.38839356952804        0.84239093820560       -0.60148169739163
C            6.99870617310874       -0.20892266139362        0.05831369129088
O            8.27644072684987       -0.21154411265714        0.52805615561728
C            9.07023866989551        0.92806956390920        0.31972941489416
C            6.27165388366795       -1.40095772846734        0.28021293021852
O            6.95356869063001       -2.38334272297075        0.93159870768654
C            6.31651421712670       -3.61483606085423        1.15306719211074
C            4.96702557733172       -1.49383787593198       -0.16320901550837
C           -0.05096748434243       -1.30466762688832       -0.62207855222210
C           -3.86818006275787        3.07664072197115        0.58600938975515
C           -4.49597592915490        2.77592857046292        1.94522887822678
C           -3.39391041775210        4.52836759253914        0.55009242271817
H           -4.65123560716612        0.94423475882215       -1.31724111680238
H           -6.83171408041611        0.26529701905687       -1.81575737059752
H           -7.19717157336569       -1.19711940550321       -2.77069667112331
H           -5.72111882742830       -0.27382667703516       -3.09805817415159
H           -4.87919785282871       -3.71378636151594        2.41267651151561
H           -5.28652364797400       -4.96739114075972        1.21581788326709
H           -3.60625612596534       -4.39679922507172        1.35978308969501
H           -3.06807282917713       -2.21778919322907        2.10212145783132
H           -2.14352723610034        0.02348692040647        2.01171684734862
H           -3.02488222409687        2.39126044706628       -1.87603781171954
H           -1.64443011156146        3.24512924531810       -1.19459300863445
H           -1.80445267678098        0.23446414851625       -1.62827392137484
H           -1.02008096354392        1.38216462898377       -2.72209547122052
H           -0.68240995952140        1.64393533227220        0.66049736396948
H            0.65238181860016        1.98546039063310       -0.96102016832600
H            2.11949386473202       -0.66672175033051        0.72754399377908
H            2.30038508341390        0.98335209648327        0.11088984647069
H            2.76666354605543        0.06737382677174       -2.16824653696663
H            2.68227052893506       -1.57567758941247       -1.51294141366954
H            4.62340954501033        1.56217494106540       -1.55966211508086
H            6.92577962809591        1.75851942467749       -0.78708960542182
H            8.65254932811400        1.80979776155490        0.81752734575752
H            9.20152431715862        1.14058053315168       -0.74663017757543
H           10.03731506974798        0.69143007740218        0.76041261465327
H            7.05552450549669       -4.23792818851945        1.65444692492070
H            5.43854384815124       -3.50765548387528        1.79942281634602
H            6.02069758852035       -4.09298093804466        0.21301202690920
H            4.40276268544078       -2.40005780128465       -0.00433986018159
H           -0.21948940561722       -1.62836938611875       -1.65459633990193
H           -1.01715668252306       -1.24312786822260       -0.11327612930622
H            0.55796859338304       -2.05303690262352       -0.12053657278706
H           -4.64223879848833        2.95398734571108       -0.18046953901820
H           -3.75975529879009        2.90608738413520        2.73146100535922
H           -4.87451011780614        1.75733314324150        1.98144828680336
H           -5.32358036244850        3.45744996290997        2.12581681605137
H           -2.60192872835288        4.68551508722490        1.27616711935669
H           -3.03824750286158        4.81457472476531       -0.43675579173165
H           -4.22429977456162        5.18218718899181        0.80658124566222
H           -0.60312409007411        2.78192753846771        2.73441590615716
72
 energy: -103.316135930790 gnorm: 0.005173322309 xtb: 6.6.1 (8d0f1dd)
N           -1.49362310771300        2.78014401808985        2.24174712450725
C           -1.54998055124628        2.15325390167909        1.15569633833910
C           -2.74409663879740        2.06101500950732        0.25013491495963
C           -3.31445924846455        0.64989581775663        0.32934822715317
C           -4.29928099847578        0.24705428978096       -0.57519877286553
C           -4.84289231882028       -1.02196540222892       -0.53572805399901
O           -5.80271076221451       -1.48653863160374       -1.38469761313045
C           -6.40464585478527       -0.61291982316527       -2.30907666994055
C           -4.39742216067390       -1.94167776628937        0.44287977053482
O           -4.98925691325957       -3.16837345907907        0.41343113017962
C           -4.65906106541353       -4.10026261252972        1.41238372906251
C           -3.42443404603250       -1.54113193189645        1.33901510148065
C           -2.88843800736060       -0.25886518407493        1.28090247287111
C           -2.19282263482982        2.30269671494567       -1.17959853830450
C           -1.26286446643508        1.18048564434055       -1.66694218971119
C            0.00697246687892        1.12899769927769       -0.89816172034432
N            0.63500041775649       -0.04704312953364       -0.56169444371451
C            2.00446309643061       -0.03424399994480       -0.15967472604472
C            2.93719197199247       -0.54137777482396       -1.28094233731846