72
 energy: 0.000000000000 xtb: 6.6.1 (8d0f1dd)
N           -1.47310921155849        2.74401293103706        2.22063921685122
C           -1.55658879776851        2.16490285539332        1.13274273951491
C           -2.74549199786261        2.05621232186130        0.23826248438941
C           -3.31377553111525        0.64333411542669        0.32332512650568
C           -4.30230156009016        0.24487110156316       -0.58026161703006
C           -4.85238763031941       -1.02286490450319       -0.53363588718165
O           -5.81419972815119       -1.48606034185536       -1.36157882725342
C           -6.39655633239252       -0.60827000183299       -2.29568474302620
C           -4.39972501531283       -1.94646102182611        0.44396929121966
O           -4.98748311285188       -3.16145997157803        0.41085992006324
C           -4.66362127904578       -4.10093827755394        1.40909127743729
C           -3.42072513477031       -1.54561384810496        1.33436546260297
C           -2.88302799614223       -0.26315800396994        1.27400150770375
C           -2.19303798107274        2.30467000305896       -1.18742977106749
C           -1.26651538239283        1.17243369445008       -1.65249429687285
C            0.01082524939134        1.09745454476277       -0.89354803499847
N            0.61779393476578       -0.02034948052406       -0.57705522512502
C            2.00145210352228       -0.02376006389122       -0.15611399603240
C            2.92554934655222       -0.53865282675074       -1.27700088804721
C            4.35756843073516       -0.43050757231754       -0.83075544324989
C            5.07346135469827        0.73206409086248       -1.03980965825901
C            6.38627986649936        0.84224441421807       -0.60344822702769
C            7.00047264773336       -0.20824756335880        0.05722314418200
O            8.26703657141718       -0.21011313101264        0.52410943644933
C            9.06912227848686        0.92943601033931        0.31863058007678
C            6.27039964270142       -1.40439753960823        0.28033466008274
O            6.94829939911432       -2.38012925705718        0.92751999079483
C            6.31537317745639       -3.61583200086742        1.15217711710877
C            4.96302794628964       -1.49347471867959       -0.16064430359178
C           -0.05511211367372       -1.29906247805359       -0.62085686319744
C           -3.86758037025447        3.07992600430699        0.58498060215443
C           -4.49286159663096        2.77383493050346        1.94313289484366
C           -3.39165179876499        4.52917666589254        0.54797523472093
H           -4.66030026466202        0.94509067363451       -1.31640568823548
H           -6.85037928558380        0.25803162192116       -1.80468845313260
H           -7.17287442604349       -1.18600110843259       -2.79318157561361
H           -5.66836817451085       -0.26952966318766       -3.04040255244073
H           -4.88416720672258       -3.71589460520039        2.40913542187496
H           -5.29223570620378       -4.96637458756866        1.20969236903657
H           -3.61139813139015       -4.39919835331056        1.35529357841967
H           -3.07077796610445       -2.21868765711333        2.10002662693138
H           -2.14562754426994        0.02067850696302        2.01001344383370
H           -3.02188875377605        2.38238012313952       -1.88813545054866
H           -1.65198530896729        3.25146700677685       -1.20556284570283
H           -1.81103374245520        0.23006524641044       -1.62116301628650
H           -0.99335688527853        1.37490212198123       -2.69443256973690
H           -0.67628064361333        1.65183887049447        0.61785727145403
H            0.63525841192517        1.98466369793744       -0.92314021190751
H            2.11132552493482       -0.65949692842762        0.72532613231274
H            2.30680473056284        0.98978251704176        0.11078972794250
H            2.76694198818247        0.06750735147374       -2.17075252200790
H            2.67954581369920       -1.57455627803457       -1.51167743520200
H            4.62169998552446        1.56295612048703       -1.56123579000624
H            6.92357674630170        1.75715815945204       -0.79119596719031
H            8.65159112996149        1.81001823324363        0.81701555159939
H            9.20136171144928        1.14042857828877       -0.74698991949293
H           10.03428838009630        0.69003240176163        0.76064937965836
H            7.05567174969094       -4.23621171795340        1.65347565939075
H            5.43848001056755       -3.50813558175093        1.79970565785717
H            6.02060041905269       -4.09420497120334        0.21253282636366
H            4.40102758497114       -2.40127266373392       -0.00490198249042
H           -0.22071299714579       -1.61775583601871       -1.65116008982042
H           -1.01972258008625       -1.24102717432227       -0.10935206830928
H            0.55899954147532       -2.04486085926761       -0.12333730421426
H           -4.63991875734388        2.95501092798550       -0.18098088071825
H           -3.76095216473977        2.90314704960906        2.73380821053058
H           -4.87457614030224        1.75695641518947        1.97884603101694
H           -5.31925552549014        3.45579210326349        2.12325564252114
H           -2.60025590131176        4.69225046143352        1.27368918226171
H           -3.03987406413880        4.81897652321898       -0.43870975059559
H           -4.22191740670577        5.18069648090034        0.80616693961239
H           -0.59832433787845        2.77744694953323        2.72958984441332
72
 energy: -5.876198576655 xtb: 6.6.1 (8d0f1dd)
N           -1.50001724414466        2.78839269044530        2.23899379668099
C           -1.55123309923347        2.15669755579246        1.15453229987355
C           -2.74525787199391        2.05992071382922        0.24904784537497
C           -3.31587893918243        0.65057615764293        0.32680627764430
C           -4.29288811874840        0.25143933482677       -0.59032527382647
C           -4.84117485475721       -1.01630589416859       -0.53172049995670
O           -5.80721030126405       -1.48529505221866       -1.37013808876825
C           -6.38691834347900       -0.59365500432541       -2.28663229260204
C           -4.39857354245800       -1.93819652374671        0.44590965131222
O           -4.99065692852901       -3.16556764487373        0.41193778800599
C           -4.66622920416483       -4.10022568591268        1.41031389078932
C           -3.42619650429260       -1.54083933220062        1.34233213405043
C           -2.89386765193136       -0.25723616549896        1.28280652029782
C           -2.19764281020982        2.29869637773939       -1.18222755549024
C           -1.26844473771130        1.17449521354421       -1.66811201388365
C            0.00268512999321        1.12668923300694       -0.90295258408767
N            0.63377002816299       -0.04859049378010       -0.56542313528406
C            2.00275551236926       -0.03283852270633       -0.16407782998705
C            2.93718934037192       -0.54163542217264       -1.28293788591600
C            4.36097758730843       -0.43422585432233       -0.84024405491990
C            5.07778203670967        0.73020487836523       -1.04372600478999
C            6.38835493493821        0.84167000418328       -0.60374481427265
C            6.99842571694053       -0.20982450021147        0.05609480206165
O            8.27661292577474       -0.21226271647041        0.52781334914381
C            9.07055980517886        0.92707538505951        0.32101253042958
C            6.27155577968803       -1.40166727437417        0.27772165500825
O            6.95428714103795       -2.38411123458887        0.92950126245892
C            6.31792277678710       -3.61564347148590        1.15129085655029
C            4.96705695010867       -1.49470368813093       -0.16607858323509
C           -0.04872130587095       -1.30717659787966       -0.62367904895636
C           -3.87376893454721        3.07160558987650        0.58607054498553
C           -4.49866688797142        2.77342146727410        1.94792286217463
C           -3.40702252358648        4.52509691134181        0.54389953209148
H           -4.62599394042322        0.93614208986474       -1.35714260911354
H           -6.85890363175267        0.25568759877323       -1.77994016046988
H           -7.14847720816275       -1.16739503238280       -2.81076516901017
H           -5.65344524637589       -0.22534799767754       -3.01184004013606
H           -4.89128940492220       -3.71898713567126        2.41216239464244
H           -5.29221947135048       -4.96856887452305        1.20932577752797
H           -3.61308254280262       -4.39917474099104        1.36396914349046
H           -3.07764591685088       -2.21665568186318        2.10861267646154
H           -2.15646993538999        0.02512843628214        2.01990433218771
H           -3.03210285980999        2.37930309544202       -1.87911750788487
H           -1.65369749618036        3.24458211314212       -1.20235067483757
H           -1.80633547602373        0.22718334700709       -1.61784167163737
H           -1.02406320031472        1.37348303114639       -2.71934073341766
H           -0.68401721815004        1.65185727204220        0.66292200755775
H            0.64537033579053        1.98830215787924       -0.95410764057869
H            2.12310343355408       -0.66304649789226        0.72361887840733
H            2.29906193597468        0.98537037673634        0.10161022247270
H            2.76934560140008        0.06512489597797       -2.17472040905664
H            2.68236424263306       -1.57646376701736       -1.51607003494450
H            4.62364730494466        1.56072877638737       -1.56367002672765
H            6.92583841432910        1.75775282120431       -0.78913757346158
H            8.65281511167271        1.80918475274371        0.81837947111887
H            9.20386236724156        1.14021636025358       -0.74511089523144
H           10.03690032395687        0.68979443538448        0.76320879452287
H            7.05738212310839       -4.23729607932085        1.65383425294818
H            5.43934604605322       -3.50885222810312        1.79716634025852
H            6.02301580385966       -4.09524016101316        0.21145685550797
H            4.40315478260138       -2.40170485898425       -0.01001073339880
H           -0.22175626924361       -1.62843791040036       -1.65698533425301
H           -1.01329414008757       -1.24784416337790       -0.11096788036312
H            0.56384738017660       -2.05564931629076       -0.12631369412778
H           -4.64863659410777        2.94120427482856       -0.17865827648772
H           -3.76226669614504        2.90798227449546        2.73354872607648
H           -4.87428672283704        1.75371571066115        1.98848206135880
H           -5.32857974620728        3.45329240759771        2.12639745241266
H           -2.61432395601971        4.68969615942099        1.26720799699703
H           -3.05322747360984        4.80793992261724       -0.44441070796785
H           -4.24098904261090        5.17513805002180        0.79817046688252
H           -0.60792500979584        2.78947441414910        2.73077329243261
72
 energy: -6.014772473550 xtb: 6.6.1 (8d0f1dd)
N           -1.50817420630623        2.80568532180366        2.24462562824911
C           -1.55330702358816        2.16042144201579        1.16698167430500
C           -2.74379096417778        2.05932252674214        0.25532612770465
C           -3.31558951060440        0.65145796529251        0.32780981307505
C           -4.28080143744957        0.25337172938304       -0.60447629655559
C           -4.83222719633357       -1.01335528613151       -0.53427763563150
O           -5.79517451637286       -1.48201414972869       -1.37670158498439
C           -6.37739598728984       -0.57795868348384       -2.27862029221446
C           -4.39822786562225       -1.93558012953481        0.44849606793309
O           -4.98940271918843       -3.16463171973543        0.41320758511105
C           -4.66973011487538       -4.10062504025491        1.41301311130758
C           -3.42996776105121       -1.53898026343370        1.34935565112268
C           -2.90083970233432       -0.25396101093423        1.29022727117014
C           -2.19910985338869        2.29477394594405       -1.17800640930667
C           -1.27276963998730        1.17055363425888       -1.67098480672254
C            0.00249294969840        1.12400816305432       -0.91349454351913
N            0.63421739372085       -0.05148253456146       -0.56810073127826
C            2.00433066513023       -0.03435076121096       -0.16958355539269
C            2.94041289796205       -0.54332306915867       -1.28729533594066
C            4.36375312971551       -0.43544736649457       -0.84360039466019
C            5.08047707564183        0.72924558614204       -1.04584834452515
C            6.39071432687544        0.84090003766365       -0.60457487464135
C            7.00074662057242       -0.21089496874684        0.05493388642332
O            8.27883459981136       -0.21338136492111        0.52742094695010
C            9.07268384231514        0.92625667219677        0.32192707036330
C            6.27384715201360       -1.40280265945033        0.27570777734096
O            6.95617348550988       -2.38554797561461        0.92796204986260
C            6.31928657498315       -3.61692969243594        1.14922988637029
C            4.96965963217393       -1.49585556113375       -0.16919687407935
C           -0.04564261381779       -1.31215346987816       -0.62554125370175
C           -3.87893903450168        3.06531966479570        0.58808437468983
C           -4.50365941024631        2.77160271794990        1.95120967832712
C           -3.42069328797676        4.52060051235860        0.53875368999793
H           -4.59386366259811        0.92603015003987       -1.39518943124893
H           -6.86729732992837        0.25239233342023       -1.75596365476520
H           -7.12230961964959       -1.14804950833733       -2.82858211628749
H           -5.63832217049254       -0.18174337890304       -2.98289350017318
H           -4.90089091523515       -3.72178403084207        2.41450235079296
H           -5.29388840095986       -4.96979452857452        1.20823423256699
H           -3.61635174934000       -4.40044210150561        1.37347056792226
H           -3.08489891175633       -2.21491117966937        2.11810169470944
H           -2.16840267023333        0.02895298519941        2.03301067131198
H           -3.03705065789391        2.37454382530865       -1.87098815418583
H           -1.65469841379030        3.23968709428418       -1.20129810314697
H           -1.80823071845785        0.22213374724880       -1.61282614049403
H           -1.04125466053192        1.36855480116980       -2.72646001891896
H           -0.68374594210453        1.65161584497565        0.68950085365138
H            0.64341005239209        1.98737719775531       -0.96549263721911
H            2.12807151290697       -0.66151680562748        0.71999652091805
H            2.29657374187916        0.98560969575600        0.09249266179442
H            2.77346217499739        0.06224987375176       -2.18013680552290
H            2.68615145900071       -1.57845019211015       -1.51976248237965
H            4.62631659286646        1.55979698244924       -1.56563714016056
H            6.92811567980777        1.75727693276718       -0.78912391458679
H            8.65417945571374        1.80770642653785        0.81977369093227
H            9.20654824826180        1.14062474792907       -0.74389234505459
H           10.03898918355255        0.68916943729259        0.76448631598276
H            7.05812744866190       -4.23889586938542        1.65236506544013
H            5.44023081339352       -3.50972198442306        1.79441831841353
H            6.02464168945480       -4.09662726351426        0.20927610015785
H            4.40562002390147       -2.40287031536890       -0.01380062382378
H           -0.22003512739883       -1.63502757959185       -1.65851909781475
H           -1.00956005300018       -1.25380675093079       -0.11198313004933
H            0.56772724659456       -2.06047427674507       -0.12811603181231
H           -4.65277483478948        2.92545911620532       -0.17625943264803
H           -3.76815327278725        2.91350074617537        2.73635383197777
H           -4.87490222242835        1.75044544102575        1.99698641116343
H           -5.33686530438414        3.44886610565584        2.12610978690866
H           -2.62946762367018        4.69173138676195        1.26178283469932
H           -3.06642987664394        4.79830530079724       -0.45070302353735
H           -4.25859052044424        5.16760151865683        0.78822614971344
H           -0.61880487362805        2.81039634001511        2.74172721074845
72
 energy: -5.905413190699 xtb: 6.6.1 (8d0f1dd)
N           -1.51656075750649        2.82363060180111        2.24886139307089
C           -1.55496033937309        2.16450159569389        1.17854233400087
C           -2.74193803918310        2.05859819810956        0.26131326410827
C           -3.31123687930923        0.65068815281725        0.32589410737029
C           -4.26531863913933        0.25314840104892       -0.62059174396058
C           -4.82154623962849       -1.01159760420316       -0.53913119378927
O           -5.78322947272647       -1.47867589717711       -1.38410693425014
C           -6.36847947799032       -0.56231399213828       -2.27095491895532
C           -4.39794976866304       -1.93294753932528        0.45075177846953
O           -4.98889726676777       -3.16325153740520        0.41490090735377
C           -4.67324862649663       -4.10054424775953        1.41573375501219
C           -3.43395821104260       -1.53698870909894        1.35618416910113
C           -2.90705937190918       -0.25100978000365        1.29677448179293
C           -2.20051589974153        2.29123961154383       -1.17347130456567
C           -1.27754885771521        1.16631777085811       -1.67238930535931
C            0.00295443433752        1.12049203491181       -0.92557615768179
N            0.63475232804413       -0.05476063329288       -0.57126214574331
C            2.00576003617777       -0.03547979949481       -0.17540021104721
C            2.94347988232290       -0.54500901305017       -1.29183878219198
C            4.36646237483673       -0.43683543673058       -0.84727891928084
C            5.08314817346446        0.72813329482581       -1.04814670958332
C            6.39292699948524        0.84013298167705       -0.60533247199826
C            7.00282034745795       -0.21187857850766        0.05400554760345
O            8.28071946060714       -0.21445252926859        0.52756425090504
C            9.07472534648701        0.92521655620426        0.32321976214981
C            6.27596533746512       -1.40389330815575        0.27372974628570
O            6.95797695132250       -2.38668542929165        0.92673552802179
C            6.32097747662628       -3.61806462700654        1.14758479921477
C            4.97220965486562       -1.49714791315263       -0.17260810198732
C           -0.04263571173426       -1.31718374470032       -0.62825268919430
C           -3.88376635857702        3.05875076555125        0.59028634792475
C           -4.50805726642795        2.76951642831646        1.95472915643127
C           -3.43427315309339        4.51613053913273        0.53353542218412
H           -4.56061584031854        0.91479982332601       -1.43307075558836
H           -6.87567971781144        0.24833352344002       -1.73218333352135
H           -7.09663668147866       -1.12814189023846       -2.84633406175354
H           -5.62491185069067       -0.13825010353077       -2.95403606123473
H           -4.91026622580894       -3.72458297355902        2.41703674884711
H           -5.29526652806492       -4.97075165913315        1.20684225901189
H           -3.61954331326119       -4.40086457030682        1.38255773422275
H           -3.09257766535267       -2.21263099857207        2.12777376578202
H           -2.18058062374480        0.03368476968902        2.04528306776556
H           -3.04236707370240        2.37009524771414       -1.86192997264637
H           -1.65596468012396        3.23521738160475       -1.20010342810604
H           -1.81058384463188        0.21685251409723       -1.60770420719691
H           -1.05896285861097        1.36365758416652       -2.73176225911524
H           -0.68330238394499        1.65100201464205        0.71593801198524
H            0.64199673206067        1.98575352643983       -0.97802126485593
H            2.13270956999866       -0.65988249180317        0.71587550961988
H            2.29453966284734        0.98606031286908        0.08354905846107
H            2.77710606934437        0.05951405842254       -2.18553362207594
H            2.68942376625020       -1.58037159482442       -1.52362398572843
H            4.62883148806967        1.55872165363986       -1.56759018742697
H            6.93010003762461        1.75699712580307       -0.78845878837430
H            8.65581056644877        1.80630798537209        0.82134084135427
H            9.20925921038390        1.14046649715186       -0.74236059311225
H           10.04089545106002        0.68806143881920        0.76620994663194
H            7.05947667649009       -4.24002039323199        1.65129021218222
H            5.44142897892631       -3.51082354232074        1.79213762227897
H            6.02687758397889       -4.09799533710619        0.20751841487072
H            4.40795667266282       -2.40410754512668       -0.01782018140849
H           -0.21942942102917       -1.64111126925108       -1.66087715535491
H           -1.00547891643866       -1.26040867159978       -0.11280527221450
H            0.57242579564980       -2.06523165060114       -0.13200373023002
H           -4.65646185352080        2.90955291195926       -0.17352766498185
H           -3.77322417015593        2.91872533350863        2.73912607230528
H           -4.87519693880051        1.74706780532091        2.00578830522358
H           -5.34443118993365        3.44417954983906        2.12619060801674
H           -2.64441841539265        4.69403849564983        1.25614176626431
H           -3.08003604088848        4.78910437980332       -0.45715344031393
H           -4.27589830689059        5.16016335044865        0.77855049264210
H           -0.62988937473710        2.83215816797221        2.75073306731986
72
 energy: -5.558933492382 xtb: 6.6.1 (8d0f1dd)
N           -1.52536196484276        2.84237975591625        2.25182177532326
C           -1.55656611942043        2.16898752198171        1.18951062501912
C           -2.74010587281559        2.05768584858271        0.26722397123098
C           -3.30674873257402        0.64952439693136        0.32378552955540
C           -4.24857391440176        0.25207237153736       -0.63703819734473
C           -4.81033336400939       -1.01051961176373       -0.54480304286679
O           -5.77130170729582       -1.47521929581788       -1.39214987920383
C           -6.35972486020803       -0.54667105129459       -2.26364783913707
C           -4.39803890206327       -1.93025372743797        0.45303758924166
O           -4.98887300650607       -3.16160247816201        0.41688584825843
C           -4.67693977372702       -4.10033151799417        1.41844350912481
C           -3.43817382923622       -1.53498237188199        1.36295119507266
C           -2.91343464088552       -0.24817354415697        1.30319327807146
C           -2.20186834128172        2.28778246131499       -1.16865470502273
C           -1.28261717447021        1.16155974295162       -1.67283636155862
C            0.00357242247107        1.11597642963358       -0.93757215320903
N            0.63577773870495       -0.05879049252936       -0.57642635588905
C            2.00708558271790       -0.03639979972128       -0.18169386998540
C            2.94662842973865       -0.54668979828602       -1.29652288000003
C            4.36920030455908       -0.43830404798681       -0.85097833340802
C            5.08584190638319        0.72691903424055       -1.05041393802667
C            6.39512922718394        0.83931308962839       -0.60606666353022
C            7.00486707565089       -0.21288081496728        0.05313918082062
O            8.28257308137979       -0.21555055821751        0.52778437444919
C            9.07672521854153        0.92413052334057        0.32458295021901
C            6.27806389755877       -1.40501399394975        0.27174593318490
O            6.95980201248254       -2.38780813834083        0.92546236783342
C            6.32272483546492       -3.61916061260851        1.14600252128753
C            4.97475232619577       -1.49850505922109       -0.17605596963991
C           -0.03971554912501       -1.32236817712472       -0.63170467242704
C           -3.88831987715998        3.05211221093918        0.59264296326367
C           -4.51225798039308        2.76725130495409        1.95832229002065
C           -3.44776663226703        4.51172685738933        0.52823625039926
H           -4.52675214949939        0.90303009841706       -1.47022637696697
H           -6.88391827010686        0.24357886712283       -1.70888596296718
H           -7.07082922312328       -1.10782150695660       -2.86413980356938
H           -5.61231280332091       -0.09495778424302       -2.92504567773749
H           -4.91968734727605       -3.72742426400223        2.41962066348066
H           -5.29681225260198       -4.97141205303135        1.20499668301315
H           -3.62289728446238       -4.40104762511747        1.39147388352783
H           -3.10047612824346       -2.21017202217004        2.13741035085497
H           -2.19317958293738        0.03895421308290        2.05721690454756
H           -3.04770714876978        2.36605273088933       -1.85237802576539
H           -1.65741715518293        3.23087450023758       -1.19874950212129
H           -1.81322326472022        0.21123553271222       -1.60246630890162
H           -1.07684647497212        1.35838018575520       -2.73558053206136
H           -0.68305347452221        1.64944239516064        0.74257057005647
H            0.64105064576939        1.98281318365232       -0.99091789562211
H            2.13701315425830       -0.65775887342560        0.71151421363423
H            2.29249567227743        0.98675115825193        0.07432339944178
H            2.78080449740372        0.05683469549395       -2.19099986578220
H            2.69254025410293       -1.58223617248089       -1.52760168260484
H            4.63133431731995        1.55750090949316       -1.56955031827780
H            6.93204266287719        1.75667312663427       -0.78766593728892
H            8.65747405793503        1.80495987467775        0.82290019623545
H            9.21197939178517        1.14017524162732       -0.74077387222256
H           10.04272699366870        0.68688949896407        0.76805343554628
H            7.06091635821907       -4.24102820803796        1.65030295746002
H            5.44268811499400       -3.51193002025597        1.78993476367616
H            6.02924746466717       -4.09941950281989        0.20586999631228
H            4.41025360189499       -2.40539346432244       -0.02192372995153
H           -0.21923480472409       -1.64743269390005       -1.66371613921392
H           -1.00135809975312       -1.26712221108848       -0.11389322848673
H            0.57734780584888       -2.06982259651457       -0.13677485386218
H           -4.65974598537168        2.89351536306760       -0.17062539654655
H           -3.77821017203163        2.92376125753487        2.74199944164026
H           -4.87549813540739        1.74363953503926        2.01462547711702
H           -5.35177573131742        3.43925480258939        2.12627643146945
H           -2.65933167686509        4.69687880253277        1.25037650847897
H           -3.09377518337419        4.78016984763928       -0.46371662721895
H           -4.29313769618865        5.15265872642155        0.76882644790319
H           -0.64165669014270        2.85448677460665        2.75861690102297
72
 energy: -4.991100170188 xtb: 6.6.1 (8d0f1dd)
N           -1.53415772341541        2.86175857496662        2.25403629333695
C           -1.55815019210347        2.17432763681259        1.20000115698256
C           -2.73828300751659        2.05662365245489        0.27310049204260
C           -3.30206491872334        0.64802357970345        0.32171652139709
C           -4.23133970705085        0.25042151922416       -0.65308480455075
C           -4.79920530890106       -1.00983775428914       -0.55067362633715
O           -5.75947585134234       -1.47152413873389       -1.40075116591388
C           -6.35147592076432       -0.53105117794866       -2.25657120660907
C           -4.39843031777654       -1.92747229308365        0.45522526710519
O           -4.98906933228966       -3.15972358261501        0.41880218975756
C           -4.68073494060733       -4.09971175755811        1.42109643409198
C           -3.44260865362062       -1.53300224267796        1.36956328869578
C           -2.91982948134374       -0.24553891501868        1.30958538122263
C           -2.20312337335818        2.28442672758576       -1.16362928605250
C           -1.28798297718253        1.15641610557000       -1.67304054236748
C            0.00407805717302        1.11034055675713       -0.94988970559578
N            0.63680109643496       -0.06325829951559       -0.58259736422396
C            2.00822673126539       -0.03720446688072       -0.18818688389565
C            2.94973461606409       -0.54833027629073       -1.30122321294877
C            4.37190984932562       -0.43979285136682       -0.85461197019677