      -----------------------------------------------------------      
     |                   =====================                   |     
     |                           x T B                           |     
     |                   =====================                   |     
     |                         S. Grimme                         |     
     |          Mulliken Center for Theoretical Chemistry        |     
     |                    University of Bonn                     |     
      -----------------------------------------------------------      

   * xtb version 6.6.1 (8d0f1dd) compiled by 'conda@1efc2f54142f' on 2023-08-01

   xtb is free software: you can redistribute it and/or modify it under
   the terms of the GNU Lesser General Public License as published by
   the Free Software Foundation, either version 3 of the License, or
   (at your option) any later version.
   
   xtb is distributed in the hope that it will be useful,
   but WITHOUT ANY WARRANTY; without even the implied warranty of
   MERCHANTABILITY or FITNESS FOR A PARTICULAR PURPOSE.  See the
   GNU Lesser General Public License for more details.
   
   Cite this work as:
   * C. Bannwarth, E. Caldeweyher, S. Ehlert, A. Hansen, P. Pracht,
     J. Seibert, S. Spicher, S. Grimme, WIREs Comput. Mol. Sci., 2020, 11,
     e01493. DOI: 10.1002/wcms.1493
   
   for GFN2-xTB:
   * C. Bannwarth, S. Ehlert and S. Grimme., J. Chem. Theory Comput., 2019,
     15, 1652-1671. DOI: 10.1021/acs.jctc.8b01176
   for GFN1-xTB:
   * S. Grimme, C. Bannwarth, P. Shushkov, J. Chem. Theory Comput., 2017,
     13, 1989-2009. DOI: 10.1021/acs.jctc.7b00118
   for GFN0-xTB:
   * P. Pracht, E. Caldeweyher, S. Ehlert, S. Grimme, ChemRxiv, 2019, preprint.
     DOI: 10.26434/chemrxiv.8326202.v1
   for GFN-FF:
   * S. Spicher and S. Grimme, Angew. Chem. Int. Ed., 2020, 59, 15665-15673.
     DOI: 10.1002/anie.202004239
   
   for ALPB and GBSA implicit solvation:
   * S. Ehlert, M. Stahn, S. Spicher, S. Grimme, J. Chem. Theory Comput.,
     2021, 17, 4250-4261. DOI: 10.1021/acs.jctc.1c00471
   
   for DFT-D4:
   * E. Caldeweyher, C. Bannwarth and S. Grimme, J. Chem. Phys., 2017,
     147, 034112. DOI: 10.1063/1.4993215
   * E. Caldeweyher, S. Ehlert, A. Hansen, H. Neugebauer, S. Spicher,
     C. Bannwarth and S. Grimme, J. Chem. Phys., 2019, 150, 154122.
     DOI: 10.1063/1.5090222
   * E. Caldeweyher, J.-M. Mewes, S. Ehlert and S. Grimme, Phys. Chem. Chem. Phys.
     2020, 22, 8499-8512. DOI: 10.1039/D0CP00502A
   
   for sTDA-xTB:
   * S. Grimme and C. Bannwarth, J. Chem. Phys., 2016, 145, 054103.
     DOI: 10.1063/1.4959605
   
   in the mass-spec context:
   * V. Asgeirsson, C. Bauer and S. Grimme, Chem. Sci., 2017, 8, 4879.
     DOI: 10.1039/c7sc00601b
   * J. Koopman and S. Grimme, ACS Omega 2019, 4, 12, 15120-15133.
     DOI: 10.1021/acsomega.9b02011
   
   for metadynamics refer to:
   * S. Grimme, J. Chem. Theory Comput., 2019, 155, 2847-2862
     DOI: 10.1021/acs.jctc.9b00143
   
   for SPH calculations refer to:
   * S. Spicher and S. Grimme, J. Chem. Theory Comput., 2021, 17, 1701-1714
     DOI: 10.1021/acs.jctc.0c01306
   
   with help from (in alphabetical order)
   P. Atkinson, C. Bannwarth, F. Bohle, G. Brandenburg, E. Caldeweyher
   M. Checinski, S. Dohm, S. Ehlert, S. Ehrlich, I. Gerasimov, C. Hölzer
   A. Katbashev, J. Koopman, C. Lavigne, S. Lehtola, F. März, M. Müller,
   F. Musil, H. Neugebauer, J. Pisarek, C. Plett, P. Pracht, F. Pultar,
   J. Seibert, P. Shushkov, S. Spicher, M. Stahn, M. Steiner, T. Strunk,
   J. Stückrath, T. Rose, and J. Unsleber
   
 * started run on 2024/06/05 at 20:00:08.580     

           -------------------------------------------------
          |                Calculation Setup                |
           -------------------------------------------------

          program call               : xtb struc.xyz --opt loose --input .xc1 --gfn2
          hostname                   : n-62-11-66
          coordinate file            : struc.xyz
          omp threads                :                     1

   ID    Z sym.   atoms
    1    6 C      1, 3, 5-7, 10, 11, 14
    2    7 N      2, 4, 9, 13
    3    8 O      8, 12
    4    1 H      15-25
constraining bond 4 13 to    4.8400000 Å, actual value:    2.4476530 Å

           -------------------------------------------------
          |                 G F N 2 - x T B                 |
           -------------------------------------------------

        Reference                      10.1021/acs.jctc.8b01176
      * Hamiltonian:
        H0-scaling (s, p, d)           1.850000    2.230000    2.230000
        zeta-weighting                 0.500000
      * Dispersion:
        s8                             2.700000
        a1                             0.520000
        a2                             5.000000
        s9                             5.000000
      * Repulsion:
        kExp                           1.500000    1.000000
        rExp                           1.000000
      * Coulomb:
        alpha                          2.000000
        third order                    shell-resolved
        anisotropic                    true
        a3                             3.000000
        a5                             4.000000
        cn-shift                       1.200000
        cn-exp                         4.000000
        max-rad                        5.000000


          ...................................................
          :                      SETUP                      :
          :.................................................:
          :  # basis functions                  67          :
          :  # atomic orbitals                  67          :
          :  # shells                           39          :
          :  # electrons                        74          :
          :  max. iterations                   250          :
          :  Hamiltonian                  GFN2-xTB          :
          :  restarted?                      false          :
          :  GBSA solvation                  false          :
          :  PC potential                    false          :
          :  electronic temp.         5000.0000000     K    :
          :  accuracy                    1.0000000          :
          :  -> integral cutoff          0.2500000E+02      :
          :  -> integral neglect         0.1000000E-07      :
          :  -> SCF convergence          0.1000000E-05 Eh   :
          :  -> wf. convergence          0.1000000E-03 e    :
          :  Broyden damping             0.4000000          :
          ...................................................

 iter      E             dE          RMSdq      gap      omega  full diag
   1    -42.5894031 -0.425894E+02  0.445E+00    3.52       0.0  T
   2    -42.7683054 -0.178902E+00  0.251E+00    3.36       1.0  T
   3    -42.7759211 -0.761567E-02  0.147E+00    3.35       1.0  T
   4    -42.7728404  0.308066E-02  0.553E-01    3.33       1.0  T
   5    -42.7789548 -0.611444E-02  0.112E-01    3.35       1.0  T
   6    -42.7790473 -0.924914E-04  0.614E-02    3.33       1.0  T
   7    -42.7790721 -0.247928E-04  0.258E-02    3.34       1.0  T
   8    -42.7790772 -0.508996E-05  0.938E-03    3.34       2.1  T
   9    -42.7790779 -0.669422E-06  0.448E-03    3.34       4.5  T
  10    -42.7790780 -0.821510E-07  0.115E-03    3.34      17.4  T
  11    -42.7790780 -0.322663E-08  0.553E-04    3.34      36.2  T
  12    -42.7790780 -0.287051E-08  0.180E-04    3.34     111.1  T

   *** convergence criteria satisfied after 12 iterations ***

         #    Occupation            Energy/Eh            Energy/eV
      -------------------------------------------------------------
         1        2.0000           -0.9185990             -24.9964
       ...           ...                  ...                  ...
        31        1.9996           -0.6230278             -16.9534
        32        1.9995           -0.6194601             -16.8564
        33        1.9979           -0.5974976             -16.2587
        34        1.9932           -0.5789629             -15.7544
        35        1.9817           -0.5631863             -15.3251
        36        1.9779           -0.5602245             -15.2445
        37        1.9748           -0.5581234             -15.1873 (HOMO)
        38        0.0652           -0.4353579             -11.8467 (LUMO)
        39        0.0099           -0.4050467             -11.0219
        40        0.0013           -0.3732218             -10.1559
        41        0.0000           -0.2886859              -7.8555
        42                         -0.2065804              -5.6213
       ...                                ...                  ...
        67                          0.5625656              15.3082
      -------------------------------------------------------------
                  HL-Gap            0.1227656 Eh            3.3406 eV
             Fermi-level           -0.4890455 Eh          -13.3076 eV

 SCC (total)                   0 d,  0 h,  0 min,  0.033 sec
 SCC setup                      ...        0 min,  0.000 sec (  0.799%)
 Dispersion                     ...        0 min,  0.000 sec (  0.859%)
 classical contributions        ...        0 min,  0.000 sec (  0.245%)
 integral evaluation            ...        0 min,  0.005 sec ( 15.433%)
 iterations                     ...        0 min,  0.016 sec ( 47.539%)
 molecular gradient             ...        0 min,  0.012 sec ( 34.683%)
 printout                       ...        0 min,  0.000 sec (  0.422%)

         :::::::::::::::::::::::::::::::::::::::::::::::::::::
         ::                     SUMMARY                     ::
         :::::::::::::::::::::::::::::::::::::::::::::::::::::
         :: total energy              -1.371142241300 Eh    ::
         :: gradient norm             25.574060379715 Eh/a0 ::
         :: HOMO-LUMO gap              3.340621582928 eV    ::
         ::.................................................::
         :: SCC energy               -42.779077977399 Eh    ::
         :: -> isotropic ES            0.141123876439 Eh    ::
         :: -> anisotropic ES         -0.005230418907 Eh    ::
         :: -> anisotropic XC          0.011966818540 Eh    ::
         :: -> dispersion             -0.022657731803 Eh    ::
         :: repulsion energy           0.531105277918 Eh    ::
         :: add. restraining          40.876716299171 Eh    ::
         :: total charge               1.000000000002 e     ::
         :::::::::::::::::::::::::::::::::::::::::::::::::::::

      ----------------------------------------------------------- 
     |                   =====================                   |
     |                        A N C O P T                        |
     |                   =====================                   |
     |               Approximate Normal Coordinate               |
     |                Rational Function Optimizer                |
      ----------------------------------------------------------- 

          ...................................................
          :                      SETUP                      :
          :.................................................:
          :   optimization level             loose          :
          :   max. optcycles                   200          :
          :   ANC micro-cycles                  20          :
          :   degrees of freedom                69          :
          :.................................................:
          :   RF solver                   davidson          :
          :   write xtbopt.log                true          :
          :   linear?                        false          :
          :   energy convergence         0.5000000E-04 Eh   :
          :   grad. convergence          0.4000000E-02 Eh/α :
          :   maxmium RF displ.          1.0000000          :
          :   Hlow (freq-cutoff)         0.1000000E-01      :
          :   Hmax (freq-cutoff)         5.0000000          :
          :   S6 in model hess.         20.0000000          :
          ...................................................

generating ANC from model Hessian ...
Using Lindh-Hessian (1995)
 Shifting diagonal of input Hessian by    7.4648431200426923     
 Lowest  eigenvalues of input Hessian
    0.010000    0.933937    0.000000    0.000000    0.000000    0.000000
    0.000000    0.000000    7.468812    7.470035    7.472164    7.473885
    7.474668    7.477158    7.477795    7.479449    7.485168    7.491089
 Highest eigenvalues
    9.572262    9.658059    9.737931    9.878712    9.988265   16.751756


........................................................................
.............................. CYCLE    1 ..............................
........................................................................

 iter      E             dE          RMSdq      gap      omega  full diag
   1    -42.7790780 -0.427791E+02  0.626E-05    3.34       0.0  T
   2    -42.7790780 -0.124416E-10  0.329E-05    3.34     607.4  T
   3    -42.7790780  0.127898E-12  0.193E-05    3.34    1034.2  T
     SCC iter.                  ...        0 min,  0.004 sec
     gradient                   ...        0 min,  0.011 sec
 * total energy  :    -1.3711422 Eh     change       -0.6650680E-10 Eh
   gradient norm :    25.5740602 Eh/α   predicted     0.0000000E+00 (-100.00%)
   displ. norm   :     0.9070115 α      lambda        0.2995416E+01
   maximum displ.:     0.9047771 α      in ANC's #3, #10, #19, ...

........................................................................
.............................. CYCLE    2 ..............................
........................................................................

 iter      E             dE          RMSdq      gap      omega  full diag
   1    -42.6123326 -0.426123E+02  0.204E+00    2.92       0.0  T
   2    -42.6079753  0.435728E-02  0.163E+00    3.27       1.0  T
   3    -42.6651279 -0.571526E-01  0.690E-01    2.83       1.0  T
   4    -42.6688668 -0.373889E-02  0.291E-01    3.08       1.0  T
   5    -42.6698620 -0.995182E-03  0.590E-02    2.98       1.0  T
   6    -42.6698791 -0.171451E-04  0.319E-02    2.98       1.0  T
   7    -42.6698864 -0.730009E-05  0.770E-03    2.98       2.6  T
   8    -42.6698869 -0.456084E-06  0.260E-03    2.98       7.7  T
   9    -42.6698869 -0.537217E-08  0.121E-03    2.98      16.6  T
  10    -42.6698869 -0.147981E-07  0.484E-04    2.98      41.3  T
  11    -42.6698869 -0.283001E-08  0.179E-04    2.98     111.6  T
     SCC iter.                  ...        0 min,  0.014 sec
     gradient                   ...        0 min,  0.011 sec
 * total energy  :   -21.0536632 Eh     change       -0.1968252E+02 Eh
   gradient norm :    17.8579111 Eh/α   predicted    -0.2113929E+02 (   7.40%)
   displ. norm   :     0.7910375 α      lambda       -0.1411325E+02
   maximum displ.:     0.7859216 α      in ANC's #3, #10, #23, ...

........................................................................
.............................. CYCLE    3 ..............................
........................................................................

 iter      E             dE          RMSdq      gap      omega  full diag
   1    -42.3280034 -0.423280E+02  0.235E+00    2.08       0.0  T
   2    -42.0523372  0.275666E+00  0.329E+00    2.28       1.0  T
   3    -42.4900592 -0.437722E+00  0.939E-01    2.38       1.0  T
   4    -42.4937784 -0.371917E-02  0.717E-01    2.32       1.0  T
   5    -42.4986928 -0.491439E-02  0.219E-01    2.32       1.0  T
   6    -42.4994038 -0.711013E-03  0.113E-01    2.34       1.0  T
   7    -42.4995821 -0.178291E-03  0.482E-02    2.33       1.0  T
   8    -42.4996021 -0.200507E-04  0.212E-02    2.34       1.0  T
   9    -42.4996071 -0.494127E-05  0.373E-03    2.33       5.4  T
  10    -42.4996071 -0.447471E-07  0.208E-03    2.33       9.6  T
  11    -42.4996071 -0.166971E-07  0.474E-04    2.33      42.2  T
  12    -42.4996071 -0.273808E-08  0.207E-04    2.33      96.6  T
     SCC iter.                  ...        0 min,  0.015 sec
     gradient                   ...        0 min,  0.011 sec
 * total energy  :   -32.5932702 Eh     change       -0.1153961E+02 Eh
   gradient norm :    11.3947119 Eh/α   predicted    -0.1147728E+02 (  -0.54%)
   displ. norm   :     0.7260527 α      lambda       -0.8192877E+01
   maximum displ.:     0.6937661 α      in ANC's #3, #6, #10, ...

........................................................................
.............................. CYCLE    4 ..............................
........................................................................

 iter      E             dE          RMSdq      gap      omega  full diag
   1    -42.2885282 -0.422885E+02  0.153E+00    1.88       0.0  T
   2    -42.3225177 -0.339895E-01  0.122E+00    1.68       1.0  T
   3    -42.3307036 -0.818593E-02  0.754E-01    1.67       1.0  T
   4    -42.3249846  0.571901E-02  0.895E-01    1.86       1.0  T
   5    -42.3445618 -0.195772E-01  0.236E-01    1.70       1.0  T
   6    -42.3453743 -0.812449E-03  0.952E-02    1.74       1.0  T
   7    -42.3455827 -0.208417E-03  0.294E-02    1.73       1.0  T
   8    -42.3455865 -0.378823E-05  0.140E-02    1.73       1.4  T
   9    -42.3455895 -0.301023E-05  0.632E-03    1.73       3.2  T
  10    -42.3455900 -0.558828E-06  0.135E-03    1.73      14.8  T
  11    -42.3455901 -0.204357E-07  0.568E-04    1.73      35.2  T
  12    -42.3455901 -0.249011E-08  0.226E-04    1.73      88.7  T
     SCC iter.                  ...        0 min,  0.014 sec
     gradient                   ...        0 min,  0.011 sec
 * total energy  :   -38.9306006 Eh     change       -0.6337330E+01 Eh
   gradient norm :     6.1686747 Eh/α   predicted    -0.6255886E+01 (  -1.29%)
   displ. norm   :     0.6034555 α      lambda       -0.3646594E+01
   maximum displ.:     0.5443654 α      in ANC's #3, #6, #10, ...

........................................................................
.............................. CYCLE    5 ..............................
........................................................................

 iter      E             dE          RMSdq      gap      omega  full diag
   1    -42.2067310 -0.422067E+02  0.121E+00    1.48       0.0  T
   2    -42.1914070  0.153240E-01  0.113E+00    0.97       1.0  T
   3    -42.2015648 -0.101578E-01  0.926E-01    1.57       1.0  T
   4    -42.2259404 -0.243756E-01  0.353E-01    1.21       1.0  T
   5    -42.2292435 -0.330314E-02  0.205E-01    1.23       1.0  T
   6    -42.2300121 -0.768568E-03  0.419E-02    1.22       1.0  T
   7    -42.2300243 -0.121580E-04  0.166E-02    1.23       1.2  T
   8    -42.2300266 -0.233731E-05  0.703E-03    1.23       2.8  T
   9    -42.2300270 -0.441445E-06  0.342E-03    1.23       5.9  T
  10    -42.2300272 -0.191834E-06  0.900E-04    1.23      22.2  T
  11    -42.2300272  0.138470E-08  0.618E-04    1.23      32.4  T
     SCC iter.                  ...        0 min,  0.013 sec
     gradient                   ...        0 min,  0.011 sec
 * total energy  :   -41.3230210 Eh     change       -0.2392420E+01 Eh
   gradient norm :     1.8637254 Eh/α   predicted    -0.2487278E+01 (   3.96%)
   displ. norm   :     0.2637827 α      lambda       -0.4769604E+00
   maximum displ.:     0.2192691 α      in ANC's #3, #6, #69, ...

........................................................................
.............................. CYCLE    6 ..............................
........................................................................

 iter      E             dE          RMSdq      gap      omega  full diag
   1    -42.1716368 -0.421716E+02  0.566E-01    1.21       0.0  T
   2    -42.1519016  0.197352E-01  0.909E-01    0.79       1.0  T
   3    -42.1744823 -0.225807E-01  0.373E-01    1.18       1.0  T
   4    -42.1786173 -0.413503E-02  0.153E-01    1.04       1.0  T
   5    -42.1788175 -0.200226E-03  0.110E-01    1.04       1.0  T
   6    -42.1791222 -0.304617E-03  0.281E-02    1.05       1.0  T
   7    -42.1791378 -0.156529E-04  0.103E-02    1.06       1.9  T
   8    -42.1791390 -0.115234E-05  0.440E-03    1.06       4.5  T
   9    -42.1791393 -0.304121E-06  0.111E-03    1.06      18.1  T
  10    -42.1791393 -0.599979E-08  0.534E-04    1.06      37.5  T
  11    -42.1791393 -0.175313E-08  0.212E-04    1.06      94.4  T
     SCC iter.                  ...        0 min,  0.013 sec
     gradient                   ...        0 min,  0.011 sec
 * total energy  :   -41.5835045 Eh     change       -0.2604835E+00 Eh
   gradient norm :     0.3811365 Eh/α   predicted    -0.2551335E+00 (  -2.05%)
   displ. norm   :     0.1013361 α      lambda       -0.3367047E-01
   maximum displ.:     0.0431713 α      in ANC's #1, #6, #50, ...

........................................................................
.............................. CYCLE    7 ..............................
........................................................................

 iter      E             dE          RMSdq      gap      omega  full diag
   1    -42.1782521 -0.421783E+02  0.235E-01    1.14       0.0  T
   2    -42.1739711  0.428106E-02  0.411E-01    0.94       1.0  T
   3    -42.1790773 -0.510624E-02  0.143E-01    1.11       1.0  T
   4    -42.1793565 -0.279183E-03  0.820E-02    1.07       1.0  T
   5    -42.1793884 -0.318620E-04  0.402E-02    1.07       1.0  T
   6    -42.1794429 -0.545139E-04  0.128E-02    1.08       1.6  T
   7    -42.1794441 -0.118126E-05  0.585E-03    1.08       3.4  T
   8    -42.1794443 -0.241023E-06  0.254E-03    1.08       7.9  T
   9    -42.1794443 -0.412914E-07  0.108E-03    1.08      18.4  T
  10    -42.1794444 -0.103870E-07  0.520E-04    1.08      38.5  T
  11    -42.1794444 -0.166122E-08  0.144E-04    1.08     138.6  T
     SCC iter.                  ...        0 min,  0.014 sec
     gradient                   ...        0 min,  0.011 sec
 * total energy  :   -41.6113979 Eh     change       -0.2789346E-01 Eh
   gradient norm :     0.3164978 Eh/α   predicted    -0.1701674E-01 ( -38.99%)
   displ. norm   :     0.2675079 α      lambda       -0.6837676E-01
   maximum displ.:     0.1168037 α      in ANC's #1, #50, #9, ...

........................................................................
.............................. CYCLE    8 ..............................
........................................................................

 iter      E             dE          RMSdq      gap      omega  full diag
   1    -42.1692563 -0.421693E+02  0.681E-01    1.45       0.0  T
   2    -42.1010236  0.682327E-01  0.150E+00    0.75       1.0  T
   3    -42.1792317 -0.782081E-01  0.342E-01    1.26       1.0  T
   4    -42.1806889 -0.145723E-02  0.206E-01    1.20       1.0  T
   5    -42.1807271 -0.382261E-04  0.127E-01    1.18       1.0  T
   6    -42.1813102 -0.583114E-03  0.350E-02    1.19       1.0  T
   7    -42.1813193 -0.908915E-05  0.145E-02    1.20       1.4  T
   8    -42.1813201 -0.810949E-06  0.655E-03    1.20       3.1  T
   9    -42.1813204 -0.245447E-06  0.308E-03    1.20       6.5  T
  10    -42.1813204 -0.552182E-07  0.166E-03    1.20      12.0  T
  11    -42.1813205 -0.267672E-07  0.462E-04    1.20      43.3  T
  12    -42.1813205 -0.126891E-08  0.237E-04    1.20      84.4  T
     SCC iter.                  ...        0 min,  0.015 sec
     gradient                   ...        0 min,  0.011 sec
 * total energy  :   -41.6593445 Eh     change       -0.4794659E-01 Eh
   gradient norm :     0.2635491 Eh/α   predicted    -0.3663642E-01 ( -23.59%)
   displ. norm   :     0.2279915 α      lambda       -0.3649535E-01
   maximum displ.:     0.0914031 α      in ANC's #50, #32, #9, ...

........................................................................
.............................. CYCLE    9 ..............................
........................................................................

 iter      E             dE          RMSdq      gap      omega  full diag
   1    -42.1797997 -0.421798E+02  0.527E-01    1.55       0.0  T
   2    -42.1470271  0.327726E-01  0.103E+00    0.98       1.0  T
   3    -42.1849417 -0.379146E-01  0.281E-01    1.41       1.0  T
   4    -42.1862077 -0.126603E-02  0.149E-01    1.36       1.0  T
   5    -42.1862005  0.716759E-05  0.841E-02    1.33       1.0  T
   6    -42.1864591 -0.258602E-03  0.349E-02    1.35       1.0  T
   7    -42.1864756 -0.165134E-04  0.123E-02    1.35       1.6  T
   8    -42.1864763 -0.693484E-06  0.630E-03    1.35       3.2  T
   9    -42.1864768 -0.484078E-06  0.272E-03    1.35       7.3  T
  10    -42.1864768 -0.466977E-08  0.135E-03    1.35      14.8  T
  11    -42.1864769 -0.270527E-07  0.431E-04    1.35      46.4  T
  12    -42.1864769 -0.202895E-08  0.203E-04    1.35      98.4  T
     SCC iter.                  ...        0 min,  0.015 sec
     gradient                   ...        0 min,  0.011 sec
 * total energy  :   -41.6863721 Eh     change       -0.2702757E-01 Eh
   gradient norm :     0.2168552 Eh/α   predicted    -0.1919631E-01 ( -28.98%)
   displ. norm   :     0.2548536 α      lambda       -0.2881797E-01
   maximum displ.:     0.1170351 α      in ANC's #50, #32, #2, ...

........................................................................
.............................. CYCLE   10 ..............................
........................................................................

 iter      E             dE          RMSdq      gap      omega  full diag
   1    -42.1907345 -0.421907E+02  0.453E-01    1.57       0.0  T
   2    -42.1766307  0.141037E-01  0.706E-01    1.25       1.0  T
   3    -42.1929962 -0.163655E-01  0.280E-01    1.56       1.0  T
   4    -42.1944713 -0.147505E-02  0.127E-01    1.49       1.0  T
   5    -42.1945937 -0.122407E-03  0.463E-02    1.49       1.0  T
   6    -42.1946276 -0.338574E-04  0.216E-02    1.50       1.0  T
   7    -42.1946295 -0.194239E-05  0.116E-02    1.50       1.7  T
   8    -42.1946322 -0.272355E-05  0.607E-03    1.50       3.3  T
   9    -42.1946330 -0.812761E-06  0.233E-03    1.50       8.6  T
  10    -42.1946331 -0.159386E-07  0.119E-03    1.50      16.8  T
  11    -42.1946331 -0.200475E-07  0.384E-04    1.50      52.1  T
  12    -42.1946331 -0.173586E-08  0.186E-04    1.50     107.7  T
     SCC iter.                  ...        0 min,  0.015 sec
     gradient                   ...        0 min,  0.011 sec
 * total energy  :   -41.7078424 Eh     change       -0.2147032E-01 Eh
   gradient norm :     0.2259437 Eh/α   predicted    -0.1534539E-01 ( -28.53%)
   displ. norm   :     0.2731551 α      lambda       -0.2740910E-01
   maximum displ.:     0.1410822 α      in ANC's #50, #32, #2, ...

........................................................................
.............................. CYCLE   11 ..............................
........................................................................

 iter      E             dE          RMSdq      gap      omega  full diag
   1    -42.2059853 -0.422060E+02  0.371E-01    1.43       0.0  T
   2    -42.2028784  0.310692E-02  0.408E-01    1.29       1.0  T
   3    -42.2056716 -0.279324E-02  0.268E-01    1.47       1.0  T
   4    -42.2072722 -0.160061E-02  0.132E-01    1.38       1.0  T
   5    -42.2075112 -0.238996E-03  0.849E-02    1.40       1.0  T
   6    -42.2076552 -0.143997E-03  0.224E-02    1.40       1.0  T
   7    -42.2076570 -0.179687E-05  0.138E-02    1.41       1.4  T
   8    -42.2076609 -0.385312E-05  0.362E-03    1.40       5.5  T
   9    -42.2076611 -0.248628E-06  0.150E-03    1.40      13.3  T
  10    -42.2076611 -0.152932E-07  0.863E-04    1.40      23.2  T
  11    -42.2076611 -0.681334E-08  0.292E-04    1.40      68.6  T
     SCC iter.                  ...        0 min,  0.014 sec
     gradient                   ...        0 min,  0.011 sec
 * total energy  :   -41.7291292 Eh     change       -0.2128675E-01 Eh
   gradient norm :     0.2400757 Eh/α   predicted    -0.1472715E-01 ( -30.82%)
   displ. norm   :     0.3288143 α      lambda       -0.3657639E-01
   maximum displ.:     0.1854148 α      in ANC's #50, #32, #35, ...

........................................................................
.............................. CYCLE   12 ..............................
........................................................................

 iter      E             dE          RMSdq      gap      omega  full diag
   1    -42.2300959 -0.422301E+02  0.392E-01    1.35       0.0  T
   2    -42.2299521  0.143860E-03  0.309E-01    1.28       1.0  T
   3    -42.2299395  0.126190E-04  0.220E-01    1.37       1.0  T
   4    -42.2296249  0.314593E-03  0.220E-01    1.28       1.0  T
   5    -42.2310822 -0.145737E-02  0.109E-01    1.34       1.0  T
   6    -42.2313732 -0.290974E-03  0.214E-02    1.33       1.0  T
   7    -42.2313768 -0.360201E-05  0.120E-02    1.33       1.7  T
   8    -42.2313787 -0.189790E-05  0.308E-03    1.33       6.5  T
   9    -42.2313790 -0.253804E-06  0.101E-03    1.33      19.8  T
  10    -42.2313790 -0.836251E-08  0.541E-04    1.33      37.0  T
  11    -42.2313790 -0.257306E-08  0.244E-04    1.33      82.1  T
     SCC iter.                  ...        0 min,  0.014 sec
     gradient                   ...        0 min,  0.011 sec
 * total energy  :   -41.7580992 Eh     change       -0.2897001E-01 Eh
   gradient norm :     0.2515693 Eh/α   predicted    -0.2026580E-01 ( -30.05%)
   displ. norm   :     0.3920451 α      lambda       -0.5173520E-01
   maximum displ.:     0.2210694 α      in ANC's #50, #26, #35, ...

........................................................................
.............................. CYCLE   13 ..............................
........................................................................

 iter      E             dE          RMSdq      gap      omega  full diag
   1    -42.2688733 -0.422689E+02  0.511E-01    1.33       0.0  T
   2    -42.2689733 -0.100012E-03  0.429E-01    1.24       1.0  T
   3    -42.2705739 -0.160063E-02  0.254E-01    1.24       1.0  T
   4    -42.2683672  0.220668E-02  0.318E-01    1.34       1.0  T
   5    -42.2718067 -0.343947E-02  0.973E-02    1.25       1.0  T
   6    -42.2720067 -0.200018E-03  0.239E-02    1.27       1.0  T
   7    -42.2720194 -0.126594E-04  0.121E-02    1.27       1.7  T
   8    -42.2720203 -0.900008E-06  0.584E-03    1.27       3.4  T
   9    -42.2720212 -0.902329E-06  0.170E-03    1.27      11.7  T
  10    -42.2720212 -0.400788E-07  0.919E-04    1.27      21.8  T
  11    -42.2720212 -0.969887E-08  0.376E-04    1.27      53.2  T
     SCC iter.                  ...        0 min,  0.014 sec
     gradient                   ...        0 min,  0.011 sec
 * total energy  :   -41.7979356 Eh     change       -0.3983641E-01 Eh
   gradient norm :     0.2400915 Eh/α   predicted    -0.2984354E-01 ( -25.08%)
   displ. norm   :     0.3577207 α      lambda       -0.4726742E-01
   maximum displ.:     0.1658749 α      in ANC's #50, #26, #2, ...

........................................................................
.............................. CYCLE   14 ..............................
........................................................................

 iter      E             dE          RMSdq      gap      omega  full diag
   1    -42.3119484 -0.423119E+02  0.611E-01    1.34       0.0  T
   2    -42.3086399  0.330845E-02  0.651E-01    1.22       1.0  T
   3    -42.3167692 -0.812928E-02  0.373E-01    1.17       1.0  T
   4    -42.3184067 -0.163752E-02  0.265E-01    1.30       1.0  T
   5    -42.3200332 -0.162651E-02  0.971E-02    1.21       1.0  T
   6    -42.3202928 -0.259586E-03  0.214E-02    1.24       1.0  T
   7    -42.3202976 -0.479065E-05  0.115E-02    1.24       1.7  T
   8    -42.3202984 -0.769665E-06  0.561E-03    1.24       3.6  T
   9    -42.3202989 -0.582722E-06  0.194E-03    1.24      10.3  T
  10    -42.3202990 -0.345688E-07  0.100E-03    1.24      19.9  T
  11    -42.3202990 -0.556235E-08  0.399E-04    1.24      50.2  T
  12    -42.3202990 -0.237090E-08  0.160E-04    1.24     125.1  T
     SCC iter.                  ...        0 min,  0.015 sec
     gradient                   ...        0 min,  0.011 sec
 * total energy  :   -41.8228790 Eh     change       -0.2494341E-01 Eh
   gradient norm :     0.1723945 Eh/α   predicted    -0.2665807E-01 (   6.87%)
   displ. norm   :     0.2826913 α      lambda       -0.6761415E-02
   maximum displ.:     0.2809378 α      in ANC's #1, #19, #6, ...

........................................................................
.............................. CYCLE   15 ..............................
........................................................................

 iter      E             dE          RMSdq      gap      omega  full diag
   1    -42.3039557 -0.423040E+02  0.385E-01    1.25       0.0  T
   2    -42.3036679  0.287801E-03  0.287E-01    1.30       1.0  T
   3    -42.3033618  0.306148E-03  0.244E-01    1.31       1.0  T
   4    -42.3034926 -0.130812E-03  0.212E-01    1.22       1.0  T
   5    -42.3051675 -0.167491E-02  0.295E-02    1.29       1.0  T
   6    -42.3051908 -0.233405E-04  0.102E-02    1.28       2.0  T
   7    -42.3051910 -0.201996E-06  0.297E-03    1.28       6.7  T
   8    -42.3051912 -0.161024E-06  0.923E-04    1.28      21.7  T
   9    -42.3051912 -0.144563E-07  0.501E-04    1.28      39.9  T
     SCC iter.                  ...        0 min,  0.011 sec
     gradient                   ...        0 min,  0.011 sec
 * total energy  :   -41.8263641 Eh     change       -0.3485051E-02 Eh
   gradient norm :     0.1826219 Eh/α   predicted    -0.3650968E-02 (   4.76%)
   displ. norm   :     0.2724713 α      lambda       -0.1523937E-01
   maximum displ.:     0.2511570 α      in ANC's #1, #19, #6, ...

........................................................................
.............................. CYCLE   16 ..............................
........................................................................

 iter      E             dE          RMSdq      gap      omega  full diag
   1    -42.3142646 -0.423143E+02  0.341E-01    1.34       0.0  T
   2    -42.3148016 -0.536991E-03  0.245E-01    1.33       1.0  T
   3    -42.3152943 -0.492708E-03  0.134E-01    1.34       1.0  T
   4    -42.3154305 -0.136150E-03  0.499E-02    1.34       1.0  T
   5    -42.3154081  0.224293E-04  0.464E-02    1.32       1.0  T
   6    -42.3154854 -0.773289E-04  0.135E-02    1.34       1.5  T
   7    -42.3154899 -0.451475E-05  0.674E-03    1.34       3.0  T
   8    -42.3154906 -0.664349E-06  0.172E-03    1.33      11.7  T
   9    -42.3154906 -0.533989E-07  0.840E-04    1.34      23.8  T
  10    -42.3154906 -0.780595E-08  0.335E-04    1.34      59.7  T
     SCC iter.                  ...        0 min,  0.012 sec
     gradient                   ...        0 min,  0.011 sec
 * total energy  :   -41.8373102 Eh     change       -0.1094612E-01 Eh
   gradient norm :     0.1091215 Eh/α   predicted    -0.8185455E-02 ( -25.22%)
   displ. norm   :     0.2230554 α      lambda       -0.1468564E-01
   maximum displ.:     0.1204534 α      in ANC's #50, #19, #44, ...

........................................................................
.............................. CYCLE   17 ..............................
........................................................................

 iter      E             dE          RMSdq      gap      omega  full diag
   1    -42.3217605 -0.423218E+02  0.357E-01    1.39       0.0  T
   2    -42.3225701 -0.809549E-03  0.243E-01    1.40       1.0  T
   3    -42.3231802 -0.610072E-03  0.123E-01    1.39       1.0  T
   4    -42.3231105  0.696981E-04  0.804E-02    1.39       1.0  T
   5    -42.3232093 -0.988413E-04  0.389E-02    1.40       1.0  T
   6    -42.3232611 -0.517975E-04  0.174E-02    1.39       1.2  T
   7    -42.3232703 -0.918599E-05  0.474E-03    1.39       4.2  T
   8    -42.3232704 -0.634054E-07  0.125E-03    1.39      16.0  T
   9    -42.3232704 -0.115014E-07  0.756E-04    1.39      26.4  T
  10    -42.3232704 -0.666999E-08  0.354E-04    1.39      56.5  T
     SCC iter.                  ...        0 min,  0.012 sec
     gradient                   ...        0 min,  0.011 sec
 * total energy  :   -41.8464002 Eh     change       -0.9090045E-02 Eh
   gradient norm :     0.1273760 Eh/α   predicted    -0.7708198E-02 ( -15.20%)
   displ. norm   :     0.1462333 α      lambda       -0.5264133E-02
   maximum displ.:     0.0965690 α      in ANC's #50, #38, #49, ...

........................................................................
.............................. CYCLE   18 ..............................
........................................................................

 iter      E             dE          RMSdq      gap      omega  full diag
   1    -42.3239061 -0.423239E+02  0.180E-01    1.37       0.0  T
   2    -42.3239002  0.586533E-05  0.125E-01    1.39       1.0  T
   3    -42.3236883  0.211926E-03  0.117E-01    1.40       1.0  T
   4    -42.3237690 -0.807047E-04  0.975E-02    1.36       1.0  T
   5    -42.3241216 -0.352632E-03  0.121E-02    1.39       1.7  T
   6    -42.3241252 -0.361882E-05  0.494E-03    1.39       4.1  T
   7    -42.3241256 -0.386867E-06  0.228E-03    1.38       8.8  T
   8    -42.3241256 -0.178805E-07  0.117E-03    1.39      17.1  T
   9    -42.3241257 -0.381495E-07  0.360E-04    1.39      55.5  T
  10    -42.3241257 -0.947942E-09  0.211E-04    1.39      94.6  T
     SCC iter.                  ...        0 min,  0.012 sec
     gradient                   ...        0 min,  0.011 sec
 * total energy  :   -41.8504781 Eh     change       -0.4077891E-02 Eh
   gradient norm :     0.1058555 Eh/α   predicted    -0.2689465E-02 ( -34.05%)
   displ. norm   :     0.2010994 α      lambda       -0.6970487E-02
   maximum displ.:     0.1292433 α      in ANC's #50, #1, #38, ...

........................................................................
.............................. CYCLE   19 ..............................
........................................................................

 iter      E             dE          RMSdq      gap      omega  full diag
   1    -42.3247722 -0.423248E+02  0.261E-01    1.30       0.0  T
   2    -42.3246617  0.110414E-03  0.221E-01    1.39       1.0  T
   3    -42.3252766 -0.614852E-03  0.144E-01    1.36       1.0  T
   4    -42.3246794  0.597241E-03  0.172E-01    1.30       1.0  T
   5    -42.3258099 -0.113052E-02  0.255E-02    1.36       1.0  T
   6    -42.3258245 -0.146301E-04  0.830E-03    1.36       2.4  T
   7    -42.3258257 -0.119770E-05  0.458E-03    1.36       4.4  T
   8    -42.3258259 -0.206233E-06  0.202E-03    1.36       9.9  T
   9    -42.3258260 -0.747309E-07  0.776E-04    1.36      25.8  T
  10    -42.3258260 -0.876917E-08  0.360E-04    1.36      55.5  T
     SCC iter.                  ...        0 min,  0.012 sec
     gradient                   ...        0 min,  0.011 sec
 * total energy  :   -41.8556250 Eh     change       -0.5146861E-02 Eh
   gradient norm :     0.1112785 Eh/α   predicted    -0.3626225E-02 ( -29.54%)
   displ. norm   :     0.2097627 α      lambda       -0.6880737E-02
   maximum displ.:     0.1202005 α      in ANC's #50, #1, #36, ...

........................................................................
.............................. CYCLE   20 ..............................
........................................................................

 iter      E             dE          RMSdq      gap      omega  full diag
   1    -42.3269022 -0.423269E+02  0.299E-01    1.21       0.0  T
   2    -42.3256249  0.127732E-02  0.333E-01    1.41       1.0  T
   3    -42.3291708 -0.354598E-02  0.143E-01    1.34       1.0  T
   4    -42.3277548  0.141603E-02  0.213E-01    1.27       1.0  T
   5    -42.3294017 -0.164687E-02  0.451E-02    1.33       1.0  T
   6    -42.3294513 -0.495790E-04  0.165E-02    1.32       1.2  T
   7    -42.3294574 -0.615493E-05  0.572E-03    1.32       3.5  T
   8    -42.3294575 -0.105419E-06  0.324E-03    1.32       6.2  T
   9    -42.3294577 -0.158355E-06  0.134E-03    1.32      14.9  T
  10    -42.3294577 -0.502804E-07  0.459E-04    1.32      43.6  T
  11    -42.3294577 -0.188701E-08  0.192E-04    1.32     104.2  T
     SCC iter.                  ...        0 min,  0.014 sec
     gradient                   ...        0 min,  0.011 sec
 * total energy  :   -41.8608438 Eh     change       -0.5218805E-02 Eh
   gradient norm :     0.1204451 Eh/α   predicted    -0.3591769E-02 ( -31.18%)
   displ. norm   :     0.2151944 α      lambda       -0.6981082E-02
   maximum displ.:     0.1254430 α      in ANC's #1, #50, #36, ...
 * RMSD in coord.:     0.8413819 α      energy gain  -0.4048970E+02 Eh

generating ANC from model Hessian ...
Using Lindh-Hessian (1995)
 Shifting diagonal of input Hessian by    1.1692663289878289E-002
 Lowest  eigenvalues of input Hessian
    0.010000    0.000000    0.000000    0.000000    0.000000    0.000000
    0.000000    0.013158    0.013675    0.014444    0.015092    0.017279
    0.017996    0.019518    0.022039    0.023099    0.026344    0.033078
 Highest eigenvalues
    1.801242    1.973230    2.215405    2.293335    2.589368    8.625751


........................................................................
.............................. CYCLE   21 ..............................
........................................................................

 iter      E             dE          RMSdq      gap      omega  full diag
   1    -42.3305838 -0.423306E+02  0.338E-01    1.11       0.0  T
   2    -42.3254927  0.509111E-02  0.486E-01    1.44       1.0  T
   3    -42.3350698 -0.957716E-02  0.166E-01    1.32       1.0  T
   4    -42.3335335  0.153634E-02  0.229E-01    1.23       1.0  T
   5    -42.3353239 -0.179046E-02  0.605E-02    1.28       1.0  T
   6    -42.3354219 -0.979954E-04  0.213E-02    1.27       1.0  T
   7    -42.3354320 -0.101038E-04  0.700E-03    1.27       2.9  T
   8    -42.3354321 -0.663565E-07  0.423E-03    1.27       4.7  T
   9    -42.3354324 -0.326593E-06  0.166E-03    1.27      12.1  T
  10    -42.3354325 -0.860647E-07  0.529E-04    1.27      37.8  T
  11    -42.3354325 -0.130346E-08  0.246E-04    1.27      81.2  T
     SCC iter.                  ...        0 min,  0.014 sec
     gradient                   ...        0 min,  0.011 sec
 * total energy  :   -41.8656296 Eh     change       -0.4785870E-02 Eh
   gradient norm :     0.0970073 Eh/α   predicted     0.0000000E+00 (-100.00%)
   displ. norm   :     0.5042473 α      lambda       -0.2762771E-01
   maximum displ.:     0.3039573 α      in ANC's #16, #7, #4, ...

........................................................................
.............................. CYCLE   22 ..............................
........................................................................

 iter      E             dE          RMSdq      gap      omega  full diag
   1    -42.3730571 -0.423731E+02  0.493E-01    1.00       0.0  T
   2    -42.3627355  0.103216E-01  0.618E-01    1.39       1.0  T
   3    -42.3783344 -0.155989E-01  0.232E-01    1.18       1.0  T
   4    -42.3746560  0.367836E-02  0.336E-01    1.11       1.0  T
   5    -42.3791252 -0.446916E-02  0.446E-02    1.18       1.0  T
   6    -42.3791824 -0.572044E-04  0.154E-02    1.18       1.3  T
   7    -42.3791852 -0.280658E-05  0.703E-03    1.18       2.8  T
   8    -42.3791856 -0.337879E-06  0.393E-03    1.18       5.1  T
   9    -42.3791859 -0.367366E-06  0.138E-03    1.18      14.4  T
  10    -42.3791860 -0.299486E-07  0.759E-04    1.18      26.3  T
  11    -42.3791860 -0.144477E-07  0.245E-04    1.18      81.6  T
     SCC iter.                  ...        0 min,  0.014 sec
     gradient                   ...        0 min,  0.011 sec
 * total energy  :   -41.8869937 Eh     change       -0.2136406E-01 Eh
   gradient norm :     0.0870696 Eh/α   predicted    -0.1732628E-01 ( -18.90%)
   displ. norm   :     0.6178180 α      lambda       -0.2243596E-01
   maximum displ.:     0.3642334 α      in ANC's #16, #7, #4, ...

........................................................................
.............................. CYCLE   23 ..............................
........................................................................

 iter      E             dE          RMSdq      gap      omega  full diag
   1    -42.3874028 -0.423874E+02  0.761E-01    0.64       0.0  T
   2    -42.3065217  0.808811E-01  0.149E+00    1.12       1.0  T
   3    -42.4094641 -0.102942E+00  0.360E-01    1.09       1.0  T
   4    -42.4089727  0.491326E-03  0.349E-01    0.96       1.0  T
   5    -42.4130759 -0.410314E-02  0.690E-02    0.99       1.0  T
   6    -42.4131143 -0.384555E-04  0.242E-02    0.99       1.0  T
   7    -42.4131229 -0.857411E-05  0.925E-03    0.99       2.2  T
   8    -42.4131237 -0.800743E-06  0.567E-03    0.99       3.5  T
   9    -42.4131242 -0.447364E-06  0.259E-03    0.99       7.7  T
  10    -42.4131243 -0.142975E-06  0.804E-04    0.99      24.9  T
  11    -42.4131243 -0.169914E-08  0.409E-04    0.99      48.9  T
     SCC iter.                  ...        0 min,  0.014 sec
     gradient                   ...        0 min,  0.011 sec
 * total energy  :   -41.9046985 Eh     change       -0.1770478E-01 Eh
   gradient norm :     0.0817156 Eh/α   predicted    -0.1549988E-01 ( -12.45%)
   displ. norm   :     0.6717463 α      lambda       -0.2160482E-01
   maximum displ.:     0.3571773 α      in ANC's #16, #7, #4, ...

........................................................................
.............................. CYCLE   24 ..............................
........................................................................

 iter      E             dE          RMSdq      gap      omega  full diag
   1    -42.3955688 -0.423956E+02  0.920E-01    0.33       0.0  T
   2    -42.2019489  0.193620E+00  0.218E+00    0.58       1.0  T
   3    -42.4267257 -0.224777E+00  0.404E-01    0.79       1.0  T
   4    -42.4235781  0.314757E-02  0.461E-01    0.65       1.0  T
   5    -42.4311914 -0.761324E-02  0.118E-01    0.71       1.0  T
   6    -42.4313987 -0.207378E-03  0.501E-02    0.70       1.0  T
   7    -42.4314383 -0.395481E-04  0.219E-02    0.69       1.0  T
   8    -42.4314510 -0.127497E-04  0.828E-03    0.69       2.4  T
   9    -42.4314511 -0.112895E-06  0.449E-03    0.69       4.5  T
  10    -42.4314517 -0.570698E-06  0.195E-03    0.69      10.3  T
  11    -42.4314518 -0.881615E-07  0.778E-04    0.69      25.7  T
  12    -42.4314518 -0.102010E-07  0.289E-04    0.69      69.1  T
     SCC iter.                  ...        0 min,  0.015 sec
     gradient                   ...        0 min,  0.011 sec
 * total energy  :   -41.9244950 Eh     change       -0.1979655E-01 Eh
   gradient norm :     0.1135585 Eh/α   predicted    -0.1567693E-01 ( -20.81%)
   displ. norm   :     0.7790239 α      lambda       -0.3406633E-01
   maximum displ.:     0.3671327 α      in ANC's #16, #7, #47, ...

........................................................................
.............................. CYCLE   25 ..............................
........................................................................

 iter      E             dE          RMSdq      gap      omega  full diag
   1    -42.4143737 -0.424144E+02  0.109E+00    0.14       0.0  T
   2    -42.2563313  0.158042E+00  0.205E+00    0.08       1.0  T
   3    -42.4372873 -0.180956E+00  0.491E-01    0.34       1.0  T
   4    -42.4241242  0.131632E-01  0.613E-01    0.26       1.0  T
   5    -42.4386440 -0.145198E-01  0.194E-01    0.37       1.0  T
   6    -42.4402198 -0.157580E-02  0.661E-02    0.34       1.0  T
   7    -42.4402748 -0.549685E-04  0.388E-02    0.34       1.0  T
   8    -42.4403252 -0.503934E-04  0.126E-02    0.34       1.6  T
   9    -42.4403271 -0.188464E-05  0.712E-03    0.34       2.8  T
  10    -42.4403274 -0.375095E-06  0.458E-03    0.34       4.4  T
  11    -42.4403281 -0.653613E-06  0.165E-03    0.34      12.1  T
  12    -42.4403281 -0.301448E-07  0.538E-04    0.34      37.2  T
  13    -42.4403281 -0.525306E-08  0.215E-04    0.34      93.2  T
     SCC iter.                  ...        0 min,  0.016 sec
     gradient                   ...        0 min,  0.011 sec
 * total energy  :   -41.9519100 Eh     change       -0.2741499E-01 Eh
   gradient norm :     0.1254694 Eh/α   predicted    -0.2737024E-01 (  -0.16%)
   displ. norm   :     0.5966589 α      lambda       -0.3227620E-01
   maximum displ.:     0.2368220 α      in ANC's #12, #47, #26, ...

........................................................................
.............................. CYCLE   26 ..............................
........................................................................

 iter      E             dE          RMSdq      gap      omega  full diag
   1    -42.4458226 -0.424458E+02  0.102E+00    0.37       0.0  T
   2    -42.4235559  0.222667E-01  0.965E-01    0.27       1.0  T
   3    -42.4209730  0.258288E-02  0.898E-01    0.47       1.0  T
   4    -42.4484986 -0.275256E-01  0.289E-01    0.35       1.0  T
   5    -42.4513185 -0.281985E-02  0.901E-02    0.36       1.0  T
   6    -42.4514832 -0.164729E-03  0.538E-02    0.37       1.0  T
   7    -42.4515223 -0.390467E-04  0.356E-02    0.36       1.0  T
   8    -42.4515490 -0.267578E-04  0.172E-02    0.37       1.2  T
   9    -42.4515593 -0.102810E-04  0.489E-03    0.37       4.1  T
  10    -42.4515595 -0.156515E-06  0.312E-03    0.37       6.4  T
  11    -42.4515597 -0.222046E-06  0.108E-03    0.37      18.6  T
  12    -42.4515597 -0.140217E-07  0.250E-04    0.37      79.9  T
  13    -42.4515597 -0.339519E-09  0.122E-04    0.37     163.4  T
     SCC iter.                  ...        0 min,  0.016 sec
     gradient                   ...        0 min,  0.011 sec
 * total energy  :   -41.9787534 Eh     change       -0.2684342E-01 Eh
   gradient norm :     0.1358734 Eh/α   predicted    -0.2188336E-01 ( -18.48%)
   displ. norm   :     0.7331910 α      lambda       -0.5170380E-01
   maximum displ.:     0.3252270 α      in ANC's #12, #26, #11, ...

........................................................................
.............................. CYCLE   27 ..............................
........................................................................

 iter      E             dE          RMSdq      gap      omega  full diag
   1    -42.4587526 -0.424588E+02  0.146E+00    0.67       0.0  T
   2    -42.3354582  0.123294E+00  0.202E+00    0.27       1.0  T
   3    -42.4643701 -0.128912E+00  0.941E-01    0.70       1.0  T
   4    -42.4837061 -0.193360E-01  0.320E-01    0.47       1.0  T
   5    -42.4856687 -0.196263E-02  0.148E-01    0.49       1.0  T
   6    -42.4862312 -0.562430E-03  0.776E-02    0.50       1.0  T
   7    -42.4863633 -0.132151E-03  0.339E-02    0.51       1.0  T
   8    -42.4863903 -0.269531E-04  0.935E-03    0.52       2.1  T
   9    -42.4863913 -0.100264E-05  0.487E-03    0.51       4.1  T
  10    -42.4863915 -0.256223E-06  0.186E-03    0.51      10.7  T
  11    -42.4863916 -0.833565E-07  0.529E-04    0.52      37.8  T
  12    -42.4863916 -0.602498E-08  0.270E-04    0.52      74.0  T
     SCC iter.                  ...        0 min,  0.015 sec
     gradient                   ...        0 min,  0.012 sec
 * total energy  :   -42.0211311 Eh     change       -0.4237767E-01 Eh
   gradient norm :     0.1459025 Eh/α   predicted    -0.3974910E-01 (  -6.20%)
   displ. norm   :     0.5744755 α      lambda       -0.4140195E-01
   maximum displ.:     0.3008101 α      in ANC's #12, #11, #26, ...

........................................................................
.............................. CYCLE   28 ..............................
........................................................................

 iter      E             dE          RMSdq      gap      omega  full diag
   1    -42.4943456 -0.424943E+02  0.969E-01    0.71       0.0  T
   2    -42.3980567  0.962888E-01  0.189E+00    0.14       1.0  T
   3    -42.5216088 -0.123552E+00  0.350E-01    0.52       1.0  T
   4    -42.5210477  0.561055E-03  0.279E-01    0.45       1.0  T
   5    -42.5223859 -0.133821E-02  0.124E-01    0.47       1.0  T
   6    -42.5226656 -0.279710E-03  0.331E-02    0.49       1.0  T
   7    -42.5226882 -0.225808E-04  0.163E-02    0.49       1.2  T
   8    -42.5226936 -0.540166E-05  0.642E-03    0.49       3.1  T
   9    -42.5226938 -0.197726E-06  0.146E-03    0.49      13.7  T
  10    -42.5226939 -0.309014E-07  0.661E-04    0.49      30.3  T
  11    -42.5226939 -0.641302E-08  0.204E-04    0.49      98.2  T
     SCC iter.                  ...        0 min,  0.014 sec
     gradient                   ...        0 min,  0.011 sec
 * total energy  :   -42.0373140 Eh     change       -0.1618285E-01 Eh
   gradient norm :     0.1948912 Eh/α   predicted    -0.2753285E-01 (  70.14%)
   displ. norm   :     0.5233495 α      lambda       -0.5987392E-01
   maximum displ.:     0.2136103 α      in ANC's #47, #45, #49, ...

........................................................................
.............................. CYCLE   29 ..............................
........................................................................

 iter      E             dE          RMSdq      gap      omega  full diag
   1    -42.5166329 -0.425166E+02  0.110E+00    0.52       0.0  T
   2    -42.4465028  0.701302E-01  0.163E+00    1.02       1.0  T
   3    -42.5369831 -0.904803E-01  0.504E-01    0.44       1.0  T
   4    -42.5412732 -0.429011E-02  0.299E-01    0.59       1.0  T
   5    -42.5428285 -0.155534E-02  0.101E-01    0.55       1.0  T
   6    -42.5430533 -0.224754E-03  0.385E-02    0.55       1.0  T
   7    -42.5430744 -0.211357E-04  0.253E-02    0.55       1.0  T
   8    -42.5430887 -0.142796E-04  0.108E-02    0.55       1.9  T
   9    -42.5430900 -0.129088E-05  0.475E-03    0.55       4.2  T
  10    -42.5430905 -0.530458E-06  0.153E-03    0.55      13.0  T
  11    -42.5430905 -0.417909E-07  0.505E-04    0.55      39.6  T
  12    -42.5430905 -0.673764E-08  0.219E-04    0.55      91.2  T
     SCC iter.                  ...        0 min,  0.015 sec
     gradient                   ...        0 min,  0.011 sec
 * total energy  :   -42.0517495 Eh     change       -0.1443552E-01 Eh
   gradient norm :     0.1249987 Eh/α   predicted    -0.3813655E-01 ( 164.19%)
   displ. norm   :     0.5013244 α      lambda       -0.3063307E-01
   maximum displ.:     0.2461129 α      in ANC's #12, #11, #16, ...

........................................................................
.............................. CYCLE   30 ..............................
........................................................................

 iter      E             dE          RMSdq      gap      omega  full diag
   1    -42.5532962 -0.425533E+02  0.512E-01    0.43       0.0  T
   2    -42.5544821 -0.118594E-02  0.306E-01    0.46       1.0  T
   3    -42.5535487  0.933404E-03  0.224E-01    0.51       1.0  T
   4    -42.5513327  0.221603E-02  0.320E-01    0.38       1.0  T
   5    -42.5549419 -0.360917E-02  0.319E-02    0.47       1.0  T
   6    -42.5549677 -0.258228E-04  0.144E-02    0.47       1.4  T
   7    -42.5549706 -0.289784E-05  0.795E-03    0.47       2.5  T
   8    -42.5549715 -0.940414E-06  0.227E-03    0.47       8.8  T
   9    -42.5549717 -0.115854E-06  0.105E-03    0.47      19.0  T
  10    -42.5549717 -0.796970E-08  0.609E-04    0.47      32.9  T
  11    -42.5549717 -0.729061E-08  0.130E-04    0.47     153.4  T
     SCC iter.                  ...        0 min,  0.014 sec
     gradient                   ...        0 min,  0.011 sec
 * total energy  :   -42.0682945 Eh     change       -0.1654503E-01 Eh
   gradient norm :     0.0785508 Eh/α   predicted    -0.1916597E-01 (  15.84%)
   displ. norm   :     0.4079891 α      lambda       -0.1477891E-01
   maximum displ.:     0.1818023 α      in ANC's #12, #16, #3, ...

........................................................................
.............................. CYCLE   31 ..............................
........................................................................

 iter      E             dE          RMSdq      gap      omega  full diag
   1    -42.5776571 -0.425777E+02  0.462E-01    0.57       0.0  T
   2    -42.5521697  0.254873E-01  0.929E-01    0.29       1.0  T
   3    -42.5835892 -0.314195E-01  0.175E-01    0.51       1.0  T
   4    -42.5835611  0.280990E-04  0.117E-01    0.48       1.0  T
   5    -42.5836892 -0.128068E-03  0.618E-02    0.49       1.0  T
   6    -42.5837859 -0.967255E-04  0.156E-02    0.49       1.3  T
   7    -42.5837914 -0.548529E-05  0.777E-03    0.49       2.6  T
   8    -42.5837926 -0.122933E-05  0.223E-03    0.49       9.0  T
   9    -42.5837927 -0.547327E-07  0.719E-04    0.49      27.8  T
  10    -42.5837927 -0.892842E-08  0.282E-04    0.49      70.9  T
     SCC iter.                  ...        0 min,  0.012 sec
     gradient                   ...        0 min,  0.011 sec
 * total energy  :   -42.0762377 Eh     change       -0.7943158E-02 Eh
   gradient norm :     0.0528971 Eh/α   predicted    -0.8619487E-02 (   8.51%)
   displ. norm   :     0.4143873 α      lambda       -0.7787616E-02
   maximum displ.:     0.2005381 α      in ANC's #11, #12, #7, ...

........................................................................
.............................. CYCLE   32 ..............................
........................................................................

 iter      E             dE          RMSdq      gap      omega  full diag
   1    -42.5869445 -0.425869E+02  0.294E-01    0.42       0.0  T
   2    -42.5867240  0.220533E-03  0.185E-01    0.46       1.0  T
   3    -42.5844593  0.226472E-02  0.285E-01    0.37       1.0  T
   4    -42.5870756 -0.261631E-02  0.710E-02    0.45       1.0  T
   5    -42.5871970 -0.121384E-03  0.263E-02    0.43       1.0  T
   6    -42.5872177 -0.207526E-04  0.778E-03    0.43       2.6  T
   7    -42.5872188 -0.112019E-05  0.299E-03    0.43       6.7  T
   8    -42.5872189 -0.719619E-07  0.740E-04    0.43      27.0  T
   9    -42.5872189 -0.623765E-08  0.405E-04    0.43      49.4  T
     SCC iter.                  ...        0 min,  0.011 sec
     gradient                   ...        0 min,  0.011 sec
 * total energy  :   -42.0805398 Eh     change       -0.4302073E-02 Eh
   gradient norm :     0.0467497 Eh/α   predicted    -0.4562446E-02 (   6.05%)
   displ. norm   :     0.2607643 α      lambda       -0.4624879E-02
   maximum displ.:     0.0925839 α      in ANC's #4, #19, #45, ...

........................................................................
.............................. CYCLE   33 ..............................
........................................................................

 iter      E             dE          RMSdq      gap      omega  full diag
   1    -42.5954255 -0.425954E+02  0.251E-01    0.35       0.0  T
   2    -42.5911340  0.429152E-02  0.380E-01    0.50       1.0  T
   3    -42.5961600 -0.502600E-02  0.128E-01    0.36       1.0  T
   4    -42.5963438 -0.183774E-03  0.584E-02    0.39       1.0  T
   5    -42.5964451 -0.101317E-03  0.150E-02    0.39       1.3  T
   6    -42.5964501 -0.500230E-05  0.640E-03    0.39       3.1  T
   7    -42.5964506 -0.545202E-06  0.322E-03    0.39       6.2  T
   8    -42.5964508 -0.137557E-06  0.835E-04    0.39      24.0  T
   9    -42.5964508 -0.384645E-08  0.472E-04    0.39      42.4  T
     SCC iter.                  ...        0 min,  0.011 sec
     gradient                   ...        0 min,  0.011 sec
 * total energy  :   -42.0828257 Eh     change       -0.2285961E-02 Eh
   gradient norm :     0.0283571 Eh/α   predicted    -0.2469684E-02 (   8.04%)
   displ. norm   :     0.3189016 α      lambda       -0.2670613E-02
   maximum displ.:     0.1864182 α      in ANC's #4, #2, #9, ...

........................................................................
.............................. CYCLE   34 ..............................
........................................................................

 iter      E             dE          RMSdq      gap      omega  full diag
   1    -42.5968705 -0.425969E+02  0.163E-01    0.37       0.0  T
   2    -42.5968417  0.287431E-04  0.105E-01    0.37       1.0  T
   3    -42.5962006  0.641113E-03  0.144E-01    0.42       1.0  T
   4    -42.5968630 -0.662438E-03  0.487E-02    0.36       1.0  T
   5    -42.5969355 -0.724289E-04  0.144E-02    0.38       1.4  T
   6    -42.5969418 -0.636876E-05  0.337E-03    0.38       5.9  T
   7    -42.5969418 -0.183354E-07  0.126E-03    0.38      15.9  T
   8    -42.5969419 -0.149128E-07  0.374E-04    0.38      53.5  T
   9    -42.5969419 -0.125225E-08  0.209E-04    0.38      95.7  T
     SCC iter.                  ...        0 min,  0.011 sec
     gradient                   ...        0 min,  0.011 sec
 * total energy  :   -42.0844358 Eh     change       -0.1610084E-02 Eh
   gradient norm :     0.0279594 Eh/α   predicted    -0.1471107E-02 (  -8.63%)
   displ. norm   :     0.2719795 α      lambda       -0.2382811E-02
   maximum displ.:     0.1081395 α      in ANC's #4, #19, #9, ...

........................................................................
.............................. CYCLE   35 ..............................
........................................................................

 iter      E             dE          RMSdq      gap      omega  full diag
   1    -42.5992414 -0.425992E+02  0.175E-01    0.30       0.0  T
   2    -42.5992408  0.613508E-06  0.107E-01    0.33       1.0  T
   3    -42.5989318  0.308947E-03  0.129E-01    0.29       1.0  T
   4    -42.5992453 -0.313438E-03  0.676E-02    0.33       1.0  T
   5    -42.5994068 -0.161571E-03  0.204E-02    0.31       1.0  T
   6    -42.5994179 -0.110716E-04  0.434E-03    0.32       4.6  T
   7    -42.5994181 -0.159741E-06  0.234E-03    0.32       8.5  T
   8    -42.5994181 -0.585232E-07  0.880E-04    0.32      22.7  T
   9    -42.5994181 -0.190563E-07  0.305E-04    0.32      65.7  T
     SCC iter.                  ...        0 min,  0.011 sec
     gradient                   ...        0 min,  0.011 sec
 * total energy  :   -42.0859014 Eh     change       -0.1465650E-02 Eh
   gradient norm :     0.0189795 Eh/α   predicted    -0.1279544E-02 ( -12.70%)
   displ. norm   :     0.2597236 α      lambda       -0.1288755E-02
   maximum displ.:     0.1335408 α      in ANC's #4, #2, #9, ...

........................................................................
.............................. CYCLE   36 ..............................
........................................................................

 iter      E             dE          RMSdq      gap      omega  full diag
   1    -42.5982444 -0.425982E+02  0.168E-01    0.25       0.0  T
   2    -42.5973429  0.901507E-03  0.183E-01    0.32       1.0  T
   3    -42.5980741 -0.731242E-03  0.124E-01    0.25       1.0  T
   4    -42.5983996 -0.325464E-03  0.405E-02    0.28       1.0  T
   5    -42.5984545 -0.549377E-04  0.790E-03    0.27       2.5  T
   6    -42.5984555 -0.102927E-05  0.356E-03    0.27       5.6  T
   7    -42.5984557 -0.155401E-06  0.118E-03    0.27      17.0  T
   8    -42.5984557 -0.125571E-07  0.502E-04    0.27      39.8  T
   9    -42.5984557 -0.390208E-08  0.204E-04    0.27      98.2  T
     SCC iter.                  ...        0 min,  0.011 sec
     gradient                   ...        0 min,  0.011 sec
 * total energy  :   -42.0867417 Eh     change       -0.8402793E-03 Eh
   gradient norm :     0.0165010 Eh/α   predicted    -0.6878484E-03 ( -18.14%)
   displ. norm   :     0.2289919 α      lambda       -0.8681431E-03
   maximum displ.:     0.1127308 α      in ANC's #5, #9, #4, ...

........................................................................
.............................. CYCLE   37 ..............................
........................................................................

 iter      E             dE          RMSdq      gap      omega  full diag
   1    -42.5986441 -0.425986E+02  0.130E-01    0.25       0.0  T
   2    -42.5984952  0.148870E-03  0.101E-01    0.28       1.0  T
   3    -42.5981914  0.303820E-03  0.124E-01    0.23       1.0  T
   4    -42.5986856 -0.494188E-03  0.234E-02    0.27       1.0  T
   5    -42.5986981 -0.124901E-04  0.100E-02    0.26       2.0  T
   6    -42.5987010 -0.288652E-05  0.332E-03    0.26       6.0  T
   7    -42.5987011 -0.176785E-06  0.133E-03    0.26      15.0  T
   8    -42.5987012 -0.257188E-07  0.379E-04    0.26      52.8  T
   9    -42.5987012 -0.108683E-08  0.256E-04    0.26      78.0  T
     SCC iter.                  ...        0 min,  0.011 sec
     gradient                   ...        0 min,  0.011 sec
 * total energy  :   -42.0871645 Eh     change       -0.4228139E-03 Eh
   gradient norm :     0.0130631 Eh/α   predicted    -0.4568342E-03 (   8.05%)
   displ. norm   :     0.1789916 α      lambda       -0.5914122E-03
   maximum displ.:     0.0830497 α      in ANC's #2, #6, #4, ...

........................................................................
.............................. CYCLE   38 ..............................
........................................................................

 iter      E             dE          RMSdq      gap      omega  full diag
   1    -42.5975991 -0.425976E+02  0.113E-01    0.27       0.0  T
   2    -42.5976111 -0.120207E-04  0.649E-02    0.26       1.0  T
   3    -42.5976038  0.732520E-05  0.214E-02    0.26       1.0  T
   4    -42.5976119 -0.805791E-05  0.931E-03    0.27       2.1  T
   5    -42.5976135 -0.162685E-05  0.595E-03    0.26       3.4  T
   6    -42.5976143 -0.825758E-06  0.327E-03    0.26       6.1  T
   7    -42.5976146 -0.251799E-06  0.139E-03    0.26      14.4  T
   8    -42.5976146 -0.556221E-07  0.283E-04    0.26      70.7  T
   9    -42.5976146 -0.123156E-08  0.168E-04    0.26     119.4  T
     SCC iter.                  ...        0 min,  0.011 sec
     gradient                   ...        0 min,  0.011 sec
 * total energy  :   -42.0874627 Eh     change       -0.2981986E-03 Eh
   gradient norm :     0.0122923 Eh/α   predicted    -0.3051807E-03 (   2.34%)
   displ. norm   :     0.1161574 α      lambda       -0.3153008E-03
   maximum displ.:     0.0753539 α      in ANC's #6, #2, #3, ...

........................................................................
.............................. CYCLE   39 ..............................
........................................................................

 iter      E             dE          RMSdq      gap      omega  full diag
   1    -42.5987298 -0.425987E+02  0.857E-02    0.28       0.0  T
   2    -42.5985762  0.153650E-03  0.819E-02    0.26       1.0  T
   3    -42.5986273 -0.511355E-04  0.698E-02    0.29       1.0  T
   4    -42.5987508 -0.123429E-03  0.202E-02    0.27       1.0  T
   5    -42.5987653 -0.145112E-04  0.258E-03    0.27       7.8  T
   6    -42.5987653 -0.446987E-07  0.139E-03    0.27      14.3  T
   7    -42.5987653 -0.163595E-07  0.545E-04    0.27      36.7  T
   8    -42.5987653 -0.666775E-08  0.141E-04    0.27     142.2  T
     SCC iter.                  ...        0 min,  0.010 sec
     gradient                   ...        0 min,  0.011 sec
 * total energy  :   -42.0876945 Eh     change       -0.2317420E-03 Eh
   gradient norm :     0.0112352 Eh/α   predicted    -0.1597904E-03 ( -31.05%)
   displ. norm   :     0.2264955 α      lambda       -0.4038584E-03
   maximum displ.:     0.1406319 α      in ANC's #6, #2, #7, ...

........................................................................
.............................. CYCLE   40 ..............................
........................................................................

 iter      E             dE          RMSdq      gap      omega  full diag
   1    -42.5989616 -0.425990E+02  0.162E-01    0.30       0.0  T
   2    -42.5987275  0.234062E-03  0.122E-01    0.27       1.0  T
   3    -42.5981815  0.546034E-03  0.161E-01    0.33       1.0  T
   4    -42.5989801 -0.798631E-03  0.366E-02    0.28       1.0  T
   5    -42.5990260 -0.459495E-04  0.487E-03    0.29       4.1  T
   6    -42.5990263 -0.216164E-06  0.258E-03    0.29       7.8  T
   7    -42.5990263 -0.443417E-07  0.988E-04    0.29      20.3  T
   8    -42.5990263 -0.169322E-07  0.313E-04    0.29      63.8  T
     SCC iter.                  ...        0 min,  0.010 sec
     gradient                   ...        0 min,  0.011 sec
 * total energy  :   -42.0879453 Eh     change       -0.2508296E-03 Eh
   gradient norm :     0.0092274 Eh/α   predicted    -0.2122945E-03 ( -15.36%)
   displ. norm   :     0.1928070 α      lambda       -0.2230914E-03
   maximum displ.:     0.1231658 α      in ANC's #6, #2, #7, ...

........................................................................
.............................. CYCLE   41 ..............................
........................................................................

 iter      E             dE          RMSdq      gap      omega  full diag
   1    -42.5984743 -0.425985E+02  0.129E-01    0.28       0.0  T
   2    -42.5984732  0.105100E-05  0.760E-02    0.28       1.0  T
   3    -42.5982368  0.236426E-03  0.799E-02    0.30       1.0  T
   4    -42.5984700 -0.233179E-03  0.210E-02    0.28       1.0  T
   5    -42.5984848 -0.148447E-04  0.519E-03    0.29       3.9  T
   6    -42.5984853 -0.490309E-06  0.209E-03    0.29       9.6  T
   7    -42.5984854 -0.363199E-07  0.467E-04    0.29      42.9  T
   8    -42.5984854 -0.246661E-08  0.224E-04    0.29      89.2  T
     SCC iter.                  ...        0 min,  0.010 sec
     gradient                   ...        0 min,  0.011 sec
 * total energy  :   -42.0880877 Eh     change       -0.1424262E-03 Eh
   gradient norm :     0.0114028 Eh/α   predicted    -0.1156990E-03 ( -18.77%)
   displ. norm   :     0.2511183 α      lambda       -0.3911422E-03
   maximum displ.:     0.1465714 α      in ANC's #6, #2, #1, ...

........................................................................
.............................. CYCLE   42 ..............................
........................................................................

 iter      E             dE          RMSdq      gap      omega  full diag
   1    -42.6007273 -0.426007E+02  0.176E-01    0.27       0.0  T
   2    -42.6007364 -0.908307E-05  0.101E-01    0.28       1.0  T
   3    -42.6006425  0.938511E-04  0.570E-02    0.27       1.0  T
   4    -42.6007458 -0.103223E-03  0.107E-02    0.27       1.9  T
   5    -42.6007463 -0.506503E-06  0.877E-03    0.28       2.3  T
   6    -42.6007485 -0.224832E-05  0.369E-03    0.27       5.4  T
   7    -42.6007488 -0.291578E-06  0.109E-03    0.28      18.4  T
   8    -42.6007488 -0.337543E-07  0.310E-04    0.28      64.5  T
   9    -42.6007488 -0.116675E-08  0.157E-04    0.28     127.1  T
     SCC iter.                  ...        0 min,  0.011 sec
     gradient                   ...        0 min,  0.011 sec
 * total energy  :   -42.0883257 Eh     change       -0.2379497E-03 Eh
   gradient norm :     0.0136834 Eh/α   predicted    -0.2079066E-03 ( -12.63%)
   displ. norm   :     0.3409671 α      lambda       -0.4762327E-03
   maximum displ.:     0.2061370 α      in ANC's #6, #2, #1, ...
 * RMSD in coord.:     0.9042011 α      energy gain  -0.2274819E+00 Eh

generating ANC from model Hessian ...
Using Lindh-Hessian (1995)
 Shifting diagonal of input Hessian by    9.3994007825147184E-003
 Lowest  eigenvalues of input Hessian
    0.000000    0.000000    0.000000    0.000000    0.000000    0.000000
    0.010000    0.012827    0.014267    0.016033    0.018514    0.019529
    0.021040    0.021709    0.024193    0.026245    0.034442    0.040100
 Highest eigenvalues
    1.999323    2.018901    2.247878    2.303684    2.524825    9.016516


........................................................................
.............................. CYCLE   43 ..............................
........................................................................

 iter      E             dE          RMSdq      gap      omega  full diag
   1    -42.5976903 -0.425977E+02  0.237E-01    0.24       0.0  T
   2    -42.5975766  0.113619E-03  0.148E-01    0.27       1.0  T
   3    -42.5954335  0.214313E-02  0.250E-01    0.18       1.0  T
   4    -42.5977305 -0.229699E-02  0.168E-02    0.25       1.2  T
   5    -42.5977397 -0.917962E-05  0.590E-03    0.25       3.4  T
   6    -42.5977400 -0.283840E-06  0.271E-03    0.25       7.4  T
   7    -42.5977401 -0.871932E-07  0.673E-04    0.25      29.7  T
   8    -42.5977401 -0.419469E-08  0.399E-04    0.25      50.1  T
     SCC iter.                  ...        0 min,  0.010 sec
     gradient                   ...        0 min,  0.011 sec
 * total energy  :   -42.0886470 Eh     change       -0.3213579E-03 Eh
   gradient norm :     0.0187172 Eh/α   predicted     0.0000000E+00 (-100.00%)
   displ. norm   :     0.1522464 α      lambda       -0.8238744E-03
   maximum displ.:     0.1022759 α      in ANC's #4, #2, #1, ...

........................................................................
.............................. CYCLE   44 ..............................
........................................................................

 iter      E             dE          RMSdq      gap      omega  full diag
   1    -42.6016468 -0.426016E+02  0.103E-01    0.24       0.0  T
   2    -42.6016470 -0.213721E-06  0.595E-02    0.25       1.0  T
   3    -42.6014630  0.184090E-03  0.707E-02    0.23       1.0  T
   4    -42.6016492 -0.186213E-03  0.153E-02    0.25       1.3  T
   5    -42.6016560 -0.686293E-05  0.575E-03    0.24       3.5  T
   6    -42.6016568 -0.724487E-06  0.206E-03    0.24       9.7  T
   7    -42.6016568 -0.283752E-07  0.435E-04    0.24      46.0  T
   8    -42.6016568 -0.267546E-08  0.208E-04    0.24      96.3  T
     SCC iter.                  ...        0 min,  0.010 sec
     gradient                   ...        0 min,  0.011 sec
 * total energy  :   -42.0892777 Eh     change       -0.6306353E-03 Eh
   gradient norm :     0.0092805 Eh/α   predicted    -0.4215968E-03 ( -33.15%)
   displ. norm   :     0.3219429 α      lambda       -0.9377056E-03
   maximum displ.:     0.2272113 α      in ANC's #4, #2, #1, ...

........................................................................
.............................. CYCLE   45 ..............................
........................................................................

 iter      E             dE          RMSdq      gap      omega  full diag
   1    -42.6038363 -0.426038E+02  0.229E-01    0.23       0.0  T
   2    -42.6037759  0.604428E-04  0.138E-01    0.24       1.0  T
   3    -42.6020335  0.174239E-02  0.222E-01    0.17       1.0  T
   4    -42.6038598 -0.182633E-02  0.257E-02    0.24       1.0  T
   5    -42.6038812 -0.214356E-04  0.960E-03    0.23       2.1  T
   6    -42.6038831 -0.185306E-05  0.367E-03    0.23       5.5  T
   7    -42.6038831 -0.311532E-07  0.117E-03    0.23      17.0  T
   8    -42.6038832 -0.452402E-07  0.354E-04    0.23      56.4  T
   9    -42.6038832 -0.834206E-09  0.182E-04    0.23     109.7  T
     SCC iter.                  ...        0 min,  0.011 sec
     gradient                   ...        0 min,  0.011 sec
 * total energy  :   -42.0899747 Eh     change       -0.6970293E-03 Eh
   gradient norm :     0.0143317 Eh/α   predicted    -0.5174483E-03 ( -25.76%)
   displ. norm   :     0.4825340 α      lambda       -0.9601651E-03
   maximum displ.:     0.3479348 α      in ANC's #4, #2, #1, ...

........................................................................
.............................. CYCLE   46 ..............................
........................................................................

 iter      E             dE          RMSdq      gap      omega  full diag
   1    -42.6015737 -0.426016E+02  0.363E-01    0.19       0.0  T
   2    -42.6013955  0.178135E-03  0.218E-01    0.23       1.0  T
   3    -42.5969148  0.448068E-02  0.359E-01    0.11       1.0  T
   4    -42.6016492 -0.473438E-02  0.352E-02    0.21       1.0  T
   5    -42.6016926 -0.433223E-04  0.137E-02    0.20       1.5  T
   6    -42.6016961 -0.358767E-05  0.611E-03    0.21       3.3  T
   7    -42.6016963 -0.183627E-06  0.219E-03    0.20       9.1  T
   8    -42.6016965 -0.131098E-06  0.606E-04    0.21      33.0  T
   9    -42.6016965 -0.599547E-08  0.288E-04    0.21      69.5  T
     SCC iter.                  ...        0 min,  0.011 sec
     gradient                   ...        0 min,  0.011 sec
 * total energy  :   -42.0906580 Eh     change       -0.6832885E-03 Eh
   gradient norm :     0.0171541 Eh/α   predicted    -0.5918657E-03 ( -13.38%)
   displ. norm   :     0.3708227 α      lambda       -0.8018175E-03
   maximum displ.:     0.2449607 α      in ANC's #4, #2, #1, ...

........................................................................
.............................. CYCLE   47 ..............................
........................................................................

 iter      E             dE          RMSdq      gap      omega  full diag
   1    -42.6006646 -0.426007E+02  0.295E-01    0.17       0.0  T
   2    -42.6005157  0.148880E-03  0.182E-01    0.20       1.0  T
   3    -42.5974532  0.306252E-02  0.298E-01    0.10       1.0  T
   4    -42.6007210 -0.326775E-02  0.233E-02    0.18       1.0  T
   5    -42.6007416 -0.206180E-04  0.723E-03    0.18       2.8  T
   6    -42.6007422 -0.566471E-06  0.452E-03    0.18       4.4  T
   7    -42.6007424 -0.252836E-06  0.180E-03    0.18      11.1  T
   8    -42.6007425 -0.533445E-07  0.449E-04    0.18      44.6  T
   9    -42.6007425 -0.516622E-08  0.196E-04    0.18     102.3  T
     SCC iter.                  ...        0 min,  0.011 sec
     gradient                   ...        0 min,  0.011 sec
 * total energy  :   -42.0912268 Eh     change       -0.5688441E-03 Eh
   gradient norm :     0.0236967 Eh/α   predicted    -0.4560379E-03 ( -19.83%)
   displ. norm   :     0.3027282 α      lambda       -0.1318851E-02
   maximum displ.:     0.1684750 α      in ANC's #2, #4, #1, ...

........................................................................
.............................. CYCLE   48 ..............................
........................................................................

 iter      E             dE          RMSdq      gap      omega  full diag
   1    -42.6061066 -0.426061E+02  0.232E-01    0.14       0.0  T
   2    -42.6059813  0.125310E-03  0.149E-01    0.18       1.0  T
   3    -42.6042385  0.174272E-02  0.230E-01    0.09       1.0  T
   4    -42.6061459 -0.190734E-02  0.234E-02    0.16       1.0  T
   5    -42.6061668 -0.209608E-04  0.521E-03    0.16       3.8  T
   6    -42.6061671 -0.270388E-06  0.273E-03    0.16       7.3  T
   7    -42.6061672 -0.605775E-07  0.110E-03    0.16      18.1  T
   8    -42.6061672 -0.215525E-07  0.425E-04    0.16      47.1  T
   9    -42.6061672 -0.386627E-08  0.181E-04    0.16     110.7  T
     SCC iter.                  ...        0 min,  0.011 sec
     gradient                   ...        0 min,  0.011 sec
 * total energy  :   -42.0920872 Eh     change       -0.8603971E-03 Eh
   gradient norm :     0.0218447 Eh/α   predicted    -0.7198723E-03 ( -16.33%)
   displ. norm   :     0.5006137 α      lambda       -0.1308505E-02
   maximum displ.:     0.3191260 α      in ANC's #4, #2, #1, ...

........................................................................
.............................. CYCLE   49 ..............................
........................................................................

 iter      E             dE          RMSdq      gap      omega  full diag
   1    -42.6030638 -0.426031E+02  0.399E-01    0.11       0.0  T
[...]
C            0.02288187727054        1.25679602895336        0.10796135769532
O            0.53282573182818        2.35150359370293        0.11523442329270
N           -1.35021874509169        1.06432426168398        0.04420959104163
C           -2.19583800198117        2.24531721321992       -0.07504141016102
C           -2.02469654975350       -0.13447322817275        0.06466077882575
O           -3.21323576992807       -0.24548638104872       -0.01967755283891
N           -1.20665290623306       -1.29781571702407        0.23311209105671
C           -1.90315475759148       -2.55304950979837        0.40348086390151
H            2.68459041590494        1.83734872068951        0.32858796935176
H            4.03012990364149        0.67007710677554        0.23607984435433
H            3.19711944307813        1.20302246435141       -1.24086251399403
H            1.58944219870790       -2.06436094119703        0.10643574637022
H           -1.57372392457451        3.12881305602809        0.04807913865727
H           -2.67584805940935        2.26024879927928       -1.05433743715257
H           -2.97330814795601        2.21543390680746        0.68765011345446
H           -1.18042951610084       -3.35903457596689        0.49930016208521
H           -2.55410144635742       -2.72600919208821       -0.45529957636192
H           -2.53439567898661       -2.50785401907023        1.29283252734348
H            4.40465696952809       -1.67107808830545       -0.80837721431259

 Bond Distances (Angstroems)
 ---------------------------
C1-N2=1.4355         C1-H15=1.0904        C1-H16=1.0906        C1-H17=1.0957        N2-C1=1.4355         N2-C3=1.3758         
N2-C6=1.3723         C3-N2=1.3758         C3-N4=1.2267         C3-H18=1.1338        N4-C3=1.2267         N4-H25=1.0103        
C5-C6=1.3604         C5-N13=1.2947        C6-N2=1.3723         C6-C5=1.3604         C6-C7=1.4716         C7-C6=1.4716         
C7-O8=1.2077         C7-N9=1.3880         O8-C7=1.2077         N9-C7=1.3880         N9-C10=1.4574        N9-C11=1.3757        
C10-N9=1.4574        C10-H19=1.0875       C10-H20=1.0907       C10-H21=1.0895       C11-N9=1.3757        C11-O12=1.1967       
C11-N13=1.4321       O12-C11=1.1967       N13-C5=1.2947        N13-C11=1.4321       N13-C14=1.4456       C14-N13=1.4456       
C14-H22=1.0868       C14-H23=1.0914       C14-H24=1.0915       H15-C1=1.0904        H16-C1=1.0906        H17-C1=1.0957        
H18-C3=1.1338        H19-C10=1.0875       H20-C10=1.0907       H21-C10=1.0895       H22-C14=1.0868       H23-C14=1.0914       
H24-C14=1.0915       H25-N4=1.0103        
 C  H  Rav=1.0948 sigma=0.0132  Rmin=1.0868  Rmax=1.1338    10
 C  C  Rav=1.4160 sigma=0.0556  Rmin=1.3604  Rmax=1.4716     2
 N  H  Rav=1.0103 sigma=0.0000  Rmin=1.0103  Rmax=1.0103     1
 N  C  Rav=1.3804 sigma=0.0686  Rmin=1.2267  Rmax=1.4574    10
 O  C  Rav=1.2022 sigma=0.0055  Rmin=1.1967  Rmax=1.2077     2

 selected bond angles (degree)
 --------------------
H15-C1-N2=109.85               H16-C1-N2=109.74               H16-C1-H15=109.73              H17-C1-N2=110.69               
H17-C1-H15=108.01              H17-C1-H16=108.78              C3-N2-C1=122.68                C6-N2-C1=125.61                
C6-N2-C3=111.48                N4-C3-N2=135.73                H18-C3-N2=106.20               H18-C3-N4=117.99               
H25-N4-C3=128.77               N13-C5-C6=126.40               C5-C6-N2=116.06                C7-C6-N2=125.80                
C7-C6-C5=118.09                O8-C7-C6=124.15                N9-C7-C6=112.89                N9-C7-O8=122.94                
C10-N9-C7=117.74               C11-N9-C7=127.24               C11-N9-C10=115.02              H19-C10-N9=108.49              
H20-C10-N9=109.87              H20-C10-H19=110.02             H21-C10-N9=109.54              H21-C10-H19=110.56             
H21-C10-H20=108.35             

 selected dihedral angles (degree)
 ---------------------------------
C3-N2-C1-H15=202.79           C3-N2-C1-H16=323.51           C3-N2-C1-H17= 83.59           C6-N2-C1-H15= 28.80           
C6-N2-C1-H16=149.53           C6-N2-C1-H17=269.60           N4-C3-N2-C1=351.60            N4-C3-N2-C6=166.35            
H18-C3-N2-C1=175.17           H18-C3-N2-C6=349.92           H25-N4-C3-N2=  0.73           H25-N4-C3-H18=176.85          
C5-C6-N2-C1=180.42            C5-C6-N2-C3=  5.86            C7-C6-N2-C1=  3.00            C7-C6-N2-C3=188.44            
N2-C6-C5-N13=190.34           C7-C6-C5-N13=  7.97           O8-C7-C6-N2=350.42            O8-C7-C6-C5=173.04            
N9-C7-C6-N2=168.75            N9-C7-C6-C5=351.38            C10-N9-C7-C6=184.27           C10-N9-C7-O8=  2.63           
C11-N9-C7-C6=  3.42           C11-N9-C7-O8=181.78           H19-C10-N9-C7=352.04          H19-C10-N9-C11=172.79         
H20-C10-N9-C7=112.35          H20-C10-N9-C11=293.09         H21-C10-N9-C7=231.27          H21-C10-N9-C11= 52.01         
           -------------------------------------------------
          |                Final Singlepoint                |
           -------------------------------------------------

          ...................................................
          :                      SETUP                      :
          :.................................................:
          :  # basis functions                  67          :
          :  # atomic orbitals                  67          :
          :  # shells                           39          :
          :  # electrons                        74          :
          :  max. iterations                   250          :
          :  Hamiltonian                  GFN2-xTB          :
          :  restarted?                      false          :
          :  GBSA solvation                  false          :
          :  PC potential                    false          :
          :  electronic temp.         5000.0000000     K    :
          :  accuracy                    1.0000000          :
          :  -> integral cutoff          0.2500000E+02      :
          :  -> integral neglect         0.1000000E-07      :
          :  -> SCF convergence          0.1000000E-05 Eh   :
          :  -> wf. convergence          0.1000000E-03 e    :
          :  Broyden damping             0.4000000          :
          ...................................................

 iter      E             dE          RMSdq      gap      omega  full diag
   1    -42.6483129 -0.426483E+02  0.688E-05    0.53       0.0  T
   2    -42.6483129  0.967688E-10  0.707E-05    0.53     283.0  T
   3    -42.6483129 -0.146926E-09  0.401E-05    0.53     499.3  T

   *** convergence criteria satisfied after 3 iterations ***

         #    Occupation            Energy/Eh            Energy/eV
      -------------------------------------------------------------
         1        2.0000           -0.8992224             -24.4691
       ...           ...                  ...                  ...
        31        1.9949           -0.6197952             -16.8655
        32        1.9937           -0.6164537             -16.7746
        33        1.9868           -0.6046500             -16.4534
        34        1.9611           -0.5873354             -15.9822
        35        1.9513           -0.5837271             -15.8840
        36        1.9287           -0.5774988             -15.7145
        37        1.3890           -0.5382832             -14.6474 (HOMO)
        38        0.7956           -0.5187163             -14.1150 (LUMO)
        39        0.0044           -0.4282504             -11.6533
        40        0.0011           -0.4062234             -11.0539
        41        0.0002           -0.3787586             -10.3065
        42        0.0000           -0.3021115              -8.2209
       ...           ...                  ...                  ...
        67                          0.5703874              15.5210
      -------------------------------------------------------------
                  HL-Gap            0.0195669 Eh            0.5324 eV
             Fermi-level           -0.5252808 Eh          -14.2936 eV

 SCC (total)                   0 d,  0 h,  0 min,  0.020 sec
 SCC setup                      ...        0 min,  0.000 sec (  0.915%)
 Dispersion                     ...        0 min,  0.000 sec (  0.863%)
 classical contributions        ...        0 min,  0.000 sec (  0.321%)
 integral evaluation            ...        0 min,  0.004 sec ( 20.353%)
 iterations                     ...        0 min,  0.004 sec ( 21.301%)
 molecular gradient             ...        0 min,  0.011 sec ( 55.611%)
 printout                       ...        0 min,  0.000 sec (  0.600%)

         :::::::::::::::::::::::::::::::::::::::::::::::::::::
         ::                     SUMMARY                     ::
         :::::::::::::::::::::::::::::::::::::::::::::::::::::
         :: total energy             -42.109421107888 Eh    ::
         :: gradient norm              0.002745198889 Eh/a0 ::
         :: HOMO-LUMO gap              0.532443146601 eV    ::
         ::.................................................::
         :: SCC energy               -42.648312905423 Eh    ::
         :: -> isotropic ES            0.131090354296 Eh    ::
         :: -> anisotropic ES         -0.004841810343 Eh    ::
         :: -> anisotropic XC          0.016446472886 Eh    ::
         :: -> dispersion             -0.021758573876 Eh    ::
         :: repulsion energy           0.538795975063 Eh    ::
         :: add. restraining           0.000020217012 Eh    ::
         :: total charge               1.000000000000 e     ::
         :::::::::::::::::::::::::::::::::::::::::::::::::::::

           -------------------------------------------------
          |                Property Printout                |
           -------------------------------------------------

    * Orbital Energies and Occupations

         #    Occupation            Energy/Eh            Energy/eV
      -------------------------------------------------------------
         1        2.0000           -0.8992224             -24.4691
       ...           ...                  ...                  ...
        25        1.9997           -0.6648054             -18.0903
        26        1.9994           -0.6535464             -17.7839
        27        1.9992           -0.6491865             -17.6653
        28        1.9988           -0.6422914             -17.4776
        29        1.9985           -0.6387553             -17.3814
        30        1.9981           -0.6357924             -17.3008
        31        1.9949           -0.6197952             -16.8655
        32        1.9937           -0.6164537             -16.7746
        33        1.9868           -0.6046500             -16.4534
        34        1.9611           -0.5873354             -15.9822
        35        1.9513           -0.5837271             -15.8840
        36        1.9287           -0.5774988             -15.7145
        37        1.3890           -0.5382832             -14.6474 (HOMO)
        38        0.7956           -0.5187163             -14.1150 (LUMO)
        39        0.0044           -0.4282504             -11.6533
        40        0.0011           -0.4062234             -11.0539
        41        0.0002           -0.3787586             -10.3065
        42        0.0000           -0.3021115              -8.2209
        43                         -0.2071981              -5.6381
        44                         -0.1618244              -4.4035
        45                         -0.1418294              -3.8594
        46                         -0.0865112              -2.3541
        47                         -0.0670112              -1.8235
        48                         -0.0474044              -1.2899
       ...                                ...                  ...
        67                          0.5703874              15.5210
      -------------------------------------------------------------
                  HL-Gap            0.0195669 Eh            0.5324 eV
             Fermi-level           -0.5252808 Eh          -14.2936 eV

     #   Z          covCN         q      C6AA      α(0)
     1   6 C        3.691    -0.076    22.149     6.735
     2   7 N        2.749     0.024    20.835     6.779
     3   6 C        2.822     0.127    25.197     8.225
     4   7 N        1.772    -0.198    26.083     7.563
     5   6 C        1.975    -0.024    31.711     9.094
     6   6 C        2.965     0.021    27.530     8.606
     7   6 C        2.771     0.276    22.334     7.740
     8   8 O        0.858    -0.331    20.351     6.048
     9   7 N        2.741    -0.068    22.553     7.053
    10   6 C        3.710    -0.063    21.846     6.680
    11   6 C        2.737     0.315    21.645     7.617
    12   8 O        0.859    -0.316    20.069     6.006
    13   7 N        2.741     0.023    20.856     6.783
    14   6 C        3.702    -0.071    22.016     6.709
    15   1 H        0.924     0.129     1.542     1.942
    16   1 H        0.924     0.100     1.786     2.090
    17   1 H        0.924     0.106     1.734     2.059
    18   1 H        0.922     0.130     1.533     1.937
    19   1 H        0.925     0.119     1.623     1.993
    20   1 H        0.924     0.106     1.728     2.056
    21   1 H        0.925     0.109     1.704     2.041
    22   1 H        0.925     0.105     1.741     2.064
    23   1 H        0.924     0.119     1.619     1.990
    24   1 H        0.924     0.116     1.645     2.006
    25   1 H        0.860     0.221     1.006     1.571

 Mol. C6AA /au·bohr⁶  :       6569.839571
 Mol. C8AA /au·bohr⁸  :     151103.836197
 Mol. α(0) /au        :        123.385954


Wiberg/Mayer (AO) data.
largest (>0.10) Wiberg bond orders for each atom

 ---------------------------------------------------------------------------
     #   Z sym  total        # sym  WBO       # sym  WBO       # sym  WBO
 ---------------------------------------------------------------------------
     1   6 C    3.898 --     2 N    0.995    16 H    0.963    15 H    0.949
                            17 H    0.941
     2   7 N    3.433 --     6 C    1.157     3 C    1.115     1 C    0.995
     3   6 C    3.861 --     4 N    1.907     2 N    1.115    18 H    0.768
     4   7 N    3.011 --     3 C    1.907    25 H    0.898
     5   6 C    3.252 --     6 C    1.411    13 N    1.405    18 H    0.142
     6   6 C    3.782 --     5 C    1.411     2 N    1.157     7 C    1.005
     7   6 C    3.907 --     8 O    1.683     9 N    1.118     6 C    1.005
     8   8 O    1.995 --     7 C    1.683     9 N    0.133
     9   7 N    3.548 --    11 C    1.138     7 C    1.118    10 C    0.964
                             8 O    0.133    12 O    0.132
    10   6 C    3.886 --    19 H    0.964     9 N    0.964    21 H    0.959
                            20 H    0.955
    11   6 C    3.913 --    12 O    1.721     9 N    1.138    13 N    0.968
    12   8 O    2.030 --    11 C    1.721     9 N    0.132
    13   7 N    3.552 --     5 C    1.405    14 C    0.974    11 C    0.968
    14   6 C    3.895 --    22 H    0.974    13 N    0.974    23 H    0.952
                            24 H    0.951
    15   1 H    0.972 --     1 C    0.949
    16   1 H    0.979 --     1 C    0.963
    17   1 H    0.960 --     1 C    0.941
    18   1 H    0.960 --     3 C    0.768     5 C    0.142
    19   1 H    0.982 --    10 C    0.964
    20   1 H    0.976 --    10 C    0.955
    21   1 H    0.978 --    10 C    0.959
    22   1 H    0.987 --    14 C    0.974
    23   1 H    0.973 --    14 C    0.952
    24   1 H    0.971 --    14 C    0.951
    25   1 H    0.924 --     4 N    0.898
 ---------------------------------------------------------------------------

Topologies differ in total number of bonds
Writing topology from bond orders to xtbtopo.mol

molecular dipole:
                 x           y           z       tot (Debye)
 q only:        1.411      -1.146      -0.051
   full:        1.475      -0.934      -0.068       4.442
molecular quadrupole (traceless):
                xx          xy          yy          xz          yz          zz
 q only:       16.656      -2.349       0.449      -4.847      -2.175     -17.106
  q+dip:       16.903      -0.378      -4.411      -5.672      -2.294     -12.493
   full:       15.366      -0.426      -4.828      -5.335      -2.299     -10.537

           -------------------------------------------------
          |                Geometry Summary                 |
           -------------------------------------------------

      molecular mass/u    :      195.1988581
   center of mass at/Å    :        0.0352872      -0.0587945       0.0215208
  moments of inertia/u·Å² :        0.4535941E+03   0.9153859E+03   0.1347238E+04
rotational constants/cm⁻¹ :        0.3716458E-01   0.1841587E-01   0.1251273E-01

 * 21 selected distances

     #   Z          #   Z                                           value/Å
     1   6 C        2   7 N                                       1.4354721
     2   7 N        3   6 C                                       1.3757688
     3   6 C        4   7 N                                       1.2267150
     2   7 N        6   6 C                                       1.3723296
     5   6 C        6   6 C                                       1.3603750
     7   6 C        8   8 O                                       1.2076757
     7   6 C        9   7 N                                       1.3879897
     9   7 N       10   6 C                                       1.4574078 (max)
     9   7 N       11   6 C                                       1.3756651
    11   6 C       12   8 O                                       1.1966882
     5   6 C       13   7 N                                       1.2947142
    13   7 N       14   6 C                                       1.4455977
     1   6 C       15   1 H                                       1.0904150
     1   6 C       16   1 H                                       1.0906134
     1   6 C       17   1 H                                       1.0956531
    10   6 C       19   1 H                                       1.0875430
    10   6 C       20   1 H                                       1.0907124
    10   6 C       21   1 H                                       1.0895189
    14   6 C       22   1 H                                       1.0867959 (min)
    14   6 C       23   1 H                                       1.0913985
    14   6 C       24   1 H                                       1.0915376

 * 4 distinct bonds (by element types)

   Z      Z             #   av. dist./Å        max./Å        min./Å
   1 H    6 C           9     1.0904653     1.0956531     1.0867959
   6 C    6 C           1     1.3603750     1.3603750     1.3603750
   6 C    7 N           9     1.3746289     1.4574078     1.2267150
   6 C    8 O           2     1.2021819     1.2076757     1.1966882


optimized geometry written to: xtbopt.xyz


           -------------------------------------------------
          | TOTAL ENERGY              -42.109421107888 Eh   |
          | GRADIENT NORM               0.002745198889 Eh/α |
          | HOMO-LUMO GAP               0.532443146601 eV   |
           -------------------------------------------------

------------------------------------------------------------------------
 * finished run on 2024/06/05 at 20:00:11.748     
------------------------------------------------------------------------
 total:
 * wall-time:     0 d,  0 h,  0 min,  3.168 sec
 *  cpu-time:     0 d,  0 h,  0 min,  3.142 sec
 * ratio c/w:     0.992 speedup
 SCF:
 * wall-time:     0 d,  0 h,  0 min,  0.033 sec
 *  cpu-time:     0 d,  0 h,  0 min,  0.033 sec
 * ratio c/w:     0.997 speedup
 ANC optimizer:
 * wall-time:     0 d,  0 h,  0 min,  3.104 sec
 *  cpu-time:     0 d,  0 h,  0 min,  3.098 sec
 * ratio c/w:     0.998 speedup

