      -----------------------------------------------------------      
     |                   =====================                   |     
     |                           x T B                           |     
     |                   =====================                   |     
     |                         S. Grimme                         |     
     |          Mulliken Center for Theoretical Chemistry        |     
     |                    University of Bonn                     |     
      -----------------------------------------------------------      

   * xtb version 6.6.1 (8d0f1dd) compiled by 'conda@1efc2f54142f' on 2023-08-01

   xtb is free software: you can redistribute it and/or modify it under
   the terms of the GNU Lesser General Public License as published by
   the Free Software Foundation, either version 3 of the License, or
   (at your option) any later version.
   
   xtb is distributed in the hope that it will be useful,
   but WITHOUT ANY WARRANTY; without even the implied warranty of
   MERCHANTABILITY or FITNESS FOR A PARTICULAR PURPOSE.  See the
   GNU Lesser General Public License for more details.
   
   Cite this work as:
   * C. Bannwarth, E. Caldeweyher, S. Ehlert, A. Hansen, P. Pracht,
     J. Seibert, S. Spicher, S. Grimme, WIREs Comput. Mol. Sci., 2020, 11,
     e01493. DOI: 10.1002/wcms.1493
   
   for GFN2-xTB:
   * C. Bannwarth, S. Ehlert and S. Grimme., J. Chem. Theory Comput., 2019,
     15, 1652-1671. DOI: 10.1021/acs.jctc.8b01176
   for GFN1-xTB:
   * S. Grimme, C. Bannwarth, P. Shushkov, J. Chem. Theory Comput., 2017,
     13, 1989-2009. DOI: 10.1021/acs.jctc.7b00118
   for GFN0-xTB:
   * P. Pracht, E. Caldeweyher, S. Ehlert, S. Grimme, ChemRxiv, 2019, preprint.
     DOI: 10.26434/chemrxiv.8326202.v1
   for GFN-FF:
   * S. Spicher and S. Grimme, Angew. Chem. Int. Ed., 2020, 59, 15665-15673.
     DOI: 10.1002/anie.202004239
   
   for ALPB and GBSA implicit solvation:
   * S. Ehlert, M. Stahn, S. Spicher, S. Grimme, J. Chem. Theory Comput.,
     2021, 17, 4250-4261. DOI: 10.1021/acs.jctc.1c00471
   
   for DFT-D4:
   * E. Caldeweyher, C. Bannwarth and S. Grimme, J. Chem. Phys., 2017,
     147, 034112. DOI: 10.1063/1.4993215
   * E. Caldeweyher, S. Ehlert, A. Hansen, H. Neugebauer, S. Spicher,
     C. Bannwarth and S. Grimme, J. Chem. Phys., 2019, 150, 154122.
     DOI: 10.1063/1.5090222
   * E. Caldeweyher, J.-M. Mewes, S. Ehlert and S. Grimme, Phys. Chem. Chem. Phys.
     2020, 22, 8499-8512. DOI: 10.1039/D0CP00502A
   
   for sTDA-xTB:
   * S. Grimme and C. Bannwarth, J. Chem. Phys., 2016, 145, 054103.
     DOI: 10.1063/1.4959605
   
   in the mass-spec context:
   * V. Asgeirsson, C. Bauer and S. Grimme, Chem. Sci., 2017, 8, 4879.
     DOI: 10.1039/c7sc00601b
   * J. Koopman and S. Grimme, ACS Omega 2019, 4, 12, 15120-15133.
     DOI: 10.1021/acsomega.9b02011
   
   for metadynamics refer to:
   * S. Grimme, J. Chem. Theory Comput., 2019, 155, 2847-2862
     DOI: 10.1021/acs.jctc.9b00143
   
   for SPH calculations refer to:
   * S. Spicher and S. Grimme, J. Chem. Theory Comput., 2021, 17, 1701-1714
     DOI: 10.1021/acs.jctc.0c01306
   
   with help from (in alphabetical order)
   P. Atkinson, C. Bannwarth, F. Bohle, G. Brandenburg, E. Caldeweyher
   M. Checinski, S. Dohm, S. Ehlert, S. Ehrlich, I. Gerasimov, C. Hölzer
   A. Katbashev, J. Koopman, C. Lavigne, S. Lehtola, F. März, M. Müller,
   F. Musil, H. Neugebauer, J. Pisarek, C. Plett, P. Pracht, F. Pultar,
   J. Seibert, P. Shushkov, S. Spicher, M. Stahn, M. Steiner, T. Strunk,
   J. Stückrath, T. Rose, and J. Unsleber
   
 * started run on 2024/06/05 at 20:00:11.770     

           -------------------------------------------------
          |                Calculation Setup                |
           -------------------------------------------------

          program call               : xtb xtbopt.xyz --opt crude --input .xc2 --gfn2
          hostname                   : n-62-11-66
          coordinate file            : xtbopt.xyz
          omp threads                :                     1

   ID    Z sym.   atoms
    1    6 C      1, 3, 5-7, 10, 11, 14
    2    7 N      2, 4, 9, 13
    3    8 O      8, 12
    4    1 H      15-25
########################################################################
[WARNING] Please study the warnings concerning your input carefully
-1- readin_getIntValue: could not parse ''
########################################################################

           -------------------------------------------------
          |                 G F N 2 - x T B                 |
           -------------------------------------------------

        Reference                      10.1021/acs.jctc.8b01176
      * Hamiltonian:
        H0-scaling (s, p, d)           1.850000    2.230000    2.230000
        zeta-weighting                 0.500000
      * Dispersion:
        s8                             2.700000
        a1                             0.520000
        a2                             5.000000
        s9                             5.000000
      * Repulsion:
        kExp                           1.500000    1.000000
        rExp                           1.000000
      * Coulomb:
        alpha                          2.000000
        third order                    shell-resolved
        anisotropic                    true
        a3                             3.000000
        a5                             4.000000
        cn-shift                       1.200000
        cn-exp                         4.000000
        max-rad                        5.000000

q/qsh data taken from xtbrestart
CAMM data taken from xtbrestart

          ...................................................
          :                      SETUP                      :
          :.................................................:
          :  # basis functions                  67          :
          :  # atomic orbitals                  67          :
          :  # shells                           39          :
          :  # electrons                        74          :
          :  max. iterations                   250          :
          :  Hamiltonian                  GFN2-xTB          :
          :  restarted?                       true          :
          :  GBSA solvation                  false          :
          :  PC potential                    false          :
          :  electronic temp.         5000.0000000     K    :
          :  accuracy                    1.0000000          :
          :  -> integral cutoff          0.2500000E+02      :
          :  -> integral neglect         0.1000000E-07      :
          :  -> SCF convergence          0.1000000E-05 Eh   :
          :  -> wf. convergence          0.1000000E-03 e    :
          :  Broyden damping             0.4000000          :
          ...................................................

 iter      E             dE          RMSdq      gap      omega  full diag
   1    -42.6483129 -0.426483E+02  0.180E-05    0.53       0.0  T
   2    -42.6483129 -0.164846E-11  0.119E-05    0.53    1676.6  T
   3    -42.6483129 -0.129319E-11  0.797E-06    0.53    2508.4  T

   *** convergence criteria satisfied after 3 iterations ***

         #    Occupation            Energy/Eh            Energy/eV
      -------------------------------------------------------------
         1        2.0000           -0.8992225             -24.4691
       ...           ...                  ...                  ...
        31        1.9949           -0.6197952             -16.8655
        32        1.9937           -0.6164537             -16.7746
        33        1.9868           -0.6046499             -16.4534
        34        1.9611           -0.5873354             -15.9822
        35        1.9513           -0.5837272             -15.8840
        36        1.9287           -0.5774986             -15.7145
        37        1.3890           -0.5382832             -14.6474 (HOMO)
        38        0.7956           -0.5187165             -14.1150 (LUMO)
        39        0.0044           -0.4282506             -11.6533
        40        0.0011           -0.4062233             -11.0539
        41        0.0002           -0.3787585             -10.3065
        42        0.0000           -0.3021116              -8.2209
       ...           ...                  ...                  ...
        67                          0.5703876              15.5210
      -------------------------------------------------------------
                  HL-Gap            0.0195667 Eh            0.5324 eV
             Fermi-level           -0.5252808 Eh          -14.2936 eV

 SCC (total)                   0 d,  0 h,  0 min,  0.022 sec
 SCC setup                      ...        0 min,  0.000 sec (  1.012%)
 Dispersion                     ...        0 min,  0.000 sec (  1.139%)
 classical contributions        ...        0 min,  0.000 sec (  0.322%)
 integral evaluation            ...        0 min,  0.004 sec ( 19.925%)
 iterations                     ...        0 min,  0.005 sec ( 24.853%)
 molecular gradient             ...        0 min,  0.011 sec ( 52.107%)
 printout                       ...        0 min,  0.000 sec (  0.613%)

         :::::::::::::::::::::::::::::::::::::::::::::::::::::
         ::                     SUMMARY                     ::
         :::::::::::::::::::::::::::::::::::::::::::::::::::::
         :: total energy             -42.109441324928 Eh    ::
         :: gradient norm              0.017907902702 Eh/a0 ::
         :: HOMO-LUMO gap              0.532437445288 eV    ::
         ::.................................................::
         :: SCC energy               -42.648312905451 Eh    ::
         :: -> isotropic ES            0.131089853628 Eh    ::
         :: -> anisotropic ES         -0.004841903782 Eh    ::
         :: -> anisotropic XC          0.016446471046 Eh    ::
         :: -> dispersion             -0.021758577885 Eh    ::
         :: repulsion energy           0.538795975063 Eh    ::
         :: add. restraining           0.000000000000 Eh    ::
         :: total charge               1.000000000000 e     ::
         :::::::::::::::::::::::::::::::::::::::::::::::::::::

      ----------------------------------------------------------- 
     |                   =====================                   |
     |                        A N C O P T                        |
     |                   =====================                   |
     |               Approximate Normal Coordinate               |
     |                Rational Function Optimizer                |
      ----------------------------------------------------------- 

          ...................................................
          :                      SETUP                      :
          :.................................................:
          :   optimization level             crude          :
          :   max. optcycles                   200          :
          :   ANC micro-cycles                  20          :
          :   degrees of freedom                69          :
          :.................................................:
          :   RF solver                   davidson          :
          :   write xtbopt.log                true          :
          :   linear?                        false          :
          :   energy convergence         0.5000000E-03 Eh   :
          :   grad. convergence          0.1000000E-01 Eh/α :
          :   maxmium RF displ.          1.0000000          :
          :   Hlow (freq-cutoff)         0.1000000E-01      :
          :   Hmax (freq-cutoff)         5.0000000          :
          :   S6 in model hess.         20.0000000          :
          ...................................................

generating ANC from model Hessian ...
Using Lindh-Hessian (1995)
 Shifting diagonal of input Hessian by    8.4354404184036232E-003
 Lowest  eigenvalues of input Hessian
    0.000000    0.000000    0.000000    0.000000    0.000000    0.000000
    0.010000    0.011468    0.013364    0.013936    0.016466    0.018188
    0.019709    0.020129    0.022595    0.025881    0.028714    0.034105
 Highest eigenvalues
    1.953851    2.025667    2.152915    2.364011    2.462781    2.551404


........................................................................
.............................. CYCLE    1 ..............................
........................................................................

 iter      E             dE          RMSdq      gap      omega  full diag
   1    -42.6483129 -0.426483E+02  0.530E-06    0.53       0.0  T
   2    -42.6483129  0.173372E-11  0.891E-06    0.53    2243.9  T
   3    -42.6483129 -0.282796E-11  0.105E-06    0.53   19054.7  T
     SCC iter.                  ...        0 min,  0.004 sec
     gradient                   ...        0 min,  0.011 sec
 * total energy  :   -42.1094413 Eh     change       -0.5897505E-12 Eh
   gradient norm :     0.0179079 Eh/α   predicted     0.0000000E+00 (-100.00%)
   displ. norm   :     0.2535262 α      lambda       -0.1906400E-02
   maximum displ.:     0.1689750 α      in ANC's #4, #2, #10, ...

........................................................................
.............................. CYCLE    2 ..............................
........................................................................

 iter      E             dE          RMSdq      gap      omega  full diag
   1    -42.6440598 -0.426441E+02  0.134E-01    0.47       0.0  T
   2    -42.6439929  0.668272E-04  0.107E-01    0.50       1.0  T
   3    -42.6439759  0.170053E-04  0.823E-02    0.47       1.0  T
   4    -42.6440728 -0.969068E-04  0.421E-02    0.49       1.0  T
   5    -42.6441478 -0.749174E-04  0.659E-03    0.49       3.0  T
   6    -42.6441484 -0.669646E-06  0.334E-03    0.49       6.0  T
   7    -42.6441485 -0.907480E-07  0.101E-03    0.49      19.8  T
   8    -42.6441485 -0.113106E-07  0.515E-04    0.49      38.8  T
   9    -42.6441485 -0.250129E-08  0.233E-04    0.49      85.8  T
     SCC iter.                  ...        0 min,  0.011 sec
     gradient                   ...        0 min,  0.012 sec
 * total energy  :   -42.1109647 Eh     change       -0.1523344E-02 Eh
   gradient norm :     0.0099670 Eh/α   predicted    -0.1014508E-02 ( -33.40%)
   displ. norm   :     0.4922753 α      lambda       -0.2273407E-02
   maximum displ.:     0.3367075 α      in ANC's #4, #2, #10, ...

........................................................................
.............................. CYCLE    3 ..............................
........................................................................

 iter      E             dE          RMSdq      gap      omega  full diag
   1    -42.6380711 -0.426381E+02  0.226E-01    0.38       0.0  T
   2    -42.6379794  0.916882E-04  0.163E-01    0.42       1.0  T
   3    -42.6377149  0.264509E-03  0.142E-01    0.37       1.0  T
   4    -42.6380083 -0.293448E-03  0.795E-02    0.41       1.0  T
   5    -42.6382725 -0.264175E-03  0.111E-02    0.40       1.8  T
   6    -42.6382745 -0.197717E-05  0.530E-03    0.40       3.8  T
   7    -42.6382747 -0.182710E-06  0.157E-03    0.40      12.7  T
   8    -42.6382747 -0.174347E-07  0.868E-04    0.40      23.0  T
   9    -42.6382747 -0.915312E-08  0.375E-04    0.40      53.3  T
     SCC iter.                  ...        0 min,  0.011 sec
     gradient                   ...        0 min,  0.011 sec
 * total energy  :   -42.1125659 Eh     change       -0.1601188E-02 Eh
   gradient norm :     0.0172289 Eh/α   predicted    -0.1412167E-02 ( -11.81%)
   displ. norm   :     0.3990373 α      lambda       -0.1234655E-02
   maximum displ.:     0.2741415 α      in ANC's #4, #2, #10, ...

........................................................................
.............................. CYCLE    4 ..............................
........................................................................

 iter      E             dE          RMSdq      gap      omega  full diag
   1    -42.6361219 -0.426361E+02  0.160E-01    0.32       0.0  T
   2    -42.6361173  0.467804E-05  0.102E-01    0.34       1.0  T
   3    -42.6360117  0.105515E-03  0.837E-02    0.32       1.0  T
   4    -42.6361978 -0.186031E-03  0.114E-02    0.33       1.8  T
   5    -42.6361998 -0.198103E-05  0.510E-03    0.33       3.9  T
   6    -42.6361986  0.113868E-05  0.630E-03    0.33       3.2  T
   7    -42.6362001 -0.147768E-05  0.111E-03    0.33      18.1  T
   8    -42.6362001 -0.170937E-07  0.536E-04    0.33      37.3  T
   9    -42.6362001 -0.345024E-08  0.187E-04    0.33     106.9  T
     SCC iter.                  ...        0 min,  0.011 sec
     gradient                   ...        0 min,  0.011 sec
 * total energy  :   -42.1134985 Eh     change       -0.9325983E-03 Eh
   gradient norm :     0.0197397 Eh/α   predicted    -0.7156434E-03 ( -23.26%)
   displ. norm   :     0.3727587 α      lambda       -0.1337968E-02
   maximum displ.:     0.2392372 α      in ANC's #4, #10, #2, ...

........................................................................
.............................. CYCLE    5 ..............................
........................................................................

 iter      E             dE          RMSdq      gap      omega  full diag
   1    -42.6392346 -0.426392E+02  0.144E-01    0.27       0.0  T
   2    -42.6391559  0.786759E-04  0.937E-02    0.27       1.0  T
   3    -42.6387269  0.429009E-03  0.130E-01    0.30       1.0  T
   4    -42.6392356 -0.508737E-03  0.439E-02    0.27       1.0  T
   5    -42.6392930 -0.574081E-04  0.103E-02    0.28       1.9  T
   6    -42.6392962 -0.314271E-05  0.295E-03    0.28       6.8  T
   7    -42.6392962 -0.518475E-07  0.115E-03    0.28      17.5  T
   8    -42.6392962 -0.892413E-08  0.432E-04    0.28      46.3  T
   9    -42.6392962 -0.223750E-08  0.109E-04    0.28     184.0  T
     SCC iter.                  ...        0 min,  0.011 sec
     gradient                   ...        0 min,  0.011 sec
 * total energy  :   -42.1144825 Eh     change       -0.9840834E-03 Eh
   gradient norm :     0.0128391 Eh/α   predicted    -0.7619434E-03 ( -22.57%)
   displ. norm   :     0.2506892 α      lambda       -0.8486427E-03
   maximum displ.:     0.1291586 α      in ANC's #4, #10, #2, ...

........................................................................
.............................. CYCLE    6 ..............................
........................................................................

 iter      E             dE          RMSdq      gap      omega  full diag
   1    -42.6449575 -0.426450E+02  0.120E-01    0.25       0.0  T
   2    -42.6447814  0.176158E-03  0.938E-02    0.24       1.0  T
   3    -42.6446327  0.148636E-03  0.111E-01    0.27       1.0  T
   4    -42.6449954 -0.362641E-03  0.284E-02    0.24       1.0  T
   5    -42.6450150 -0.196443E-04  0.822E-03    0.25       2.4  T
   6    -42.6450170 -0.197189E-05  0.234E-03    0.25       8.5  T
   7    -42.6450170 -0.260101E-07  0.959E-04    0.25      20.9  T
   8    -42.6450170 -0.103064E-07  0.325E-04    0.25      61.5  T
     SCC iter.                  ...        0 min,  0.010 sec
     gradient                   ...        0 min,  0.011 sec
 * total energy  :   -42.1150152 Eh     change       -0.5326446E-03 Eh
   gradient norm :     0.0066653 Eh/α   predicted    -0.4510590E-03 ( -15.32%)
   displ. norm   :     0.1682678 α      lambda       -0.1877407E-03
   maximum displ.:     0.0812082 α      in ANC's #4, #10, #2, ...

........................................................................
.............................. CYCLE    7 ..............................
........................................................................

 iter      E             dE          RMSdq      gap      omega  full diag
   1    -42.6444823 -0.426445E+02  0.706E-02    0.23       0.0  T
   2    -42.6443944  0.878470E-04  0.645E-02    0.22       1.0  T
   3    -42.6444256 -0.311411E-04  0.551E-02    0.24       1.0  T
   4    -42.6445011 -0.755307E-04  0.213E-02    0.23       1.0  T
   5    -42.6445130 -0.118672E-04  0.524E-03    0.23       3.8  T
   6    -42.6445137 -0.789272E-06  0.139E-03    0.23      14.4  T
   7    -42.6445137 -0.544001E-08  0.572E-04    0.23      35.0  T
   8    -42.6445137 -0.340764E-08  0.216E-04    0.23      92.5  T
     SCC iter.                  ...        0 min,  0.010 sec
     gradient                   ...        0 min,  0.011 sec
 * total energy  :   -42.1151258 Eh     change       -0.1106181E-03 Eh
   gradient norm :     0.0055116 Eh/α   predicted    -0.9652893E-04 ( -12.74%)
   displ. norm   :     0.0747020 α      lambda       -0.9082741E-04
   maximum displ.:     0.0421289 α      in ANC's #1, #2, #13, ...

   *** GEOMETRY OPTIMIZATION CONVERGED AFTER 7 ITERATIONS ***

------------------------------------------------------------------------
 total energy gain   :        -0.0056845 Eh       -3.5671 kcal/mol
 total RMSD          :         0.3714504 a0        0.1966 Å
 total power (kW/mol):        -2.1320845 (step)  -78.0905 (real)
------------------------------------------------------------------------

 ANCopt (total)                0 d,  0 h,  0 min,  0.191 sec
 optimizer setup                ...        0 min,  0.000 sec (  0.209%)
 model hessian                  ...        0 min,  0.006 sec (  2.921%)
 ANC generation                 ...        0 min,  0.001 sec (  0.370%)
 coordinate transformation      ...        0 min,  0.000 sec (  0.034%)
 single point calculation       ...        0 min,  0.182 sec ( 94.963%)
 optimization log               ...        0 min,  0.002 sec (  0.969%)
 hessian update                 ...        0 min,  0.000 sec (  0.043%)
 rational function              ...        0 min,  0.001 sec (  0.272%)

================
 final structure:
================
25
 xtb: 6.6.1 (8d0f1dd)
C            2.99618277183205        0.90859118118206       -0.21447696096114
N            2.11388573029804       -0.22356068574279       -0.10388096293939
C            2.65960947014951       -1.49632143956494       -0.17947705347917
N            3.83094546901405       -1.84964384614501       -0.40811002091366
C           -0.01255476784693       -1.26236492371589        0.15700190673021
C            0.75196935796599       -0.13876526132372        0.02322556242908
C            0.02193932506584        1.16000315205893        0.02483509817313
O            0.57195227852168        2.23734361262823        0.00346930134765
N           -1.35360539870774        1.04486841914067        0.04224662330289
C           -2.14051709906468        2.26966443412923       -0.04008234984585
C           -2.08715331693796       -0.11730795604050        0.12496865041504
O           -3.28413496774502       -0.16589164815737        0.12417191351607
N           -1.31395804552732       -1.30150710119477        0.23283543654825
C           -2.05003523379939       -2.53505738036187        0.41186211203811
H            2.54526932224890        1.79165824007107        0.23586685417736
H            3.93593635045870        0.68562291941500        0.29264547331846
H            3.20406881458356        1.13566044590945       -1.26505714902194
H            1.90813736264896       -2.27440221254415       -0.01484830542604
H           -1.47164670683535        3.12067127406787        0.06800478369783
H           -2.64998627199009        2.31631039822084       -1.00372028615698
H           -2.89355461081748        2.27146459037124        0.74747521250808
H           -1.35271943051423       -3.36504305436915        0.48523737947393
H           -2.72842883437882       -2.68314685874483       -0.43059356636204
H           -2.65778419024906       -2.47091460769378        1.31638873464606
H            4.61661413572608       -1.23969314999459       -0.59881676931921

 Bond Distances (Angstroems)
 ---------------------------
C1-N2=1.4396         C1-H15=1.0890        C1-H16=1.0909        C1-H17=1.0948        N2-C1=1.4396         N2-C3=1.3869         
N2-C6=1.3705         C3-N2=1.3869         C3-N4=1.2446         C3-H18=1.0942        N4-C3=1.2446         N4-H25=1.0128        
C5-C6=1.3656         C5-N13=1.3042        C6-N2=1.3705         C6-C5=1.3656         C6-C7=1.4899         C7-C6=1.4899         
C7-O8=1.2098         C7-N9=1.3805         O8-C7=1.2098         N9-C7=1.3805         N9-C10=1.4581        N9-C11=1.3768        
C10-N9=1.4581        C10-H19=1.0878       C10-H20=1.0910       C10-H21=1.0896       C11-N9=1.3768        C11-O12=1.1980       
C11-N13=1.4184       O12-C11=1.1980       N13-C5=1.3042        N13-C11=1.4184       N13-C14=1.4476       C14-N13=1.4476       
C14-H22=1.0865       C14-H23=1.0917       C14-H24=1.0916       H15-C1=1.0890        H16-C1=1.0909        H17-C1=1.0948        
H18-C3=1.0942        H19-C10=1.0878       H20-C10=1.0910       H21-C10=1.0896       H22-C14=1.0865       H23-C14=1.0917       
H24-C14=1.0916       H25-N4=1.0128        
 C  H  Rav=1.0907 sigma=0.0025  Rmin=1.0865  Rmax=1.0948    10
 C  C  Rav=1.4277 sigma=0.0621  Rmin=1.3656  Rmax=1.4899     2
 N  H  Rav=1.0128 sigma=0.0000  Rmin=1.0128  Rmax=1.0128     1
 N  C  Rav=1.3827 sigma=0.0631  Rmin=1.2446  Rmax=1.4581    10
 O  C  Rav=1.2039 sigma=0.0059  Rmin=1.1980  Rmax=1.2098     2

 selected bond angles (degree)
 --------------------
H15-C1-N2=110.62               H16-C1-N2=109.36               H16-C1-H15=109.28              H17-C1-N2=110.68               
H17-C1-H15=107.90              H17-C1-H16=108.96              C3-N2-C1=118.45                C6-N2-C1=124.58                
C6-N2-C3=116.93                N4-C3-N2=129.85                H18-C3-N2=111.97               H18-C3-N4=118.17               
H25-N4-C3=126.42               N13-C5-C6=126.09               C5-C6-N2=120.97                C7-C6-N2=122.75                
C7-C6-C5=116.28                O8-C7-C6=123.61                N9-C7-C6=114.55                N9-C7-O8=121.84                
C10-N9-C7=117.84               C11-N9-C7=127.02               C11-N9-C10=115.14              H19-C10-N9=108.64              
H20-C10-N9=109.74              H20-C10-H19=109.97             H21-C10-N9=109.48              H21-C10-H19=110.60             
H21-C10-H20=108.40             

 selected dihedral angles (degree)
 ---------------------------------
C3-N2-C1-H15=202.21           C3-N2-C1-H16=322.62           C3-N2-C1-H17= 82.67           C6-N2-C1-H15= 24.74           
C6-N2-C1-H16=145.15           C6-N2-C1-H17=265.20           N4-C3-N2-C1=355.53            N4-C3-N2-C6=173.19            
H18-C3-N2-C1=176.09           H18-C3-N2-C6=353.75           H25-N4-C3-N2=359.06           H25-N4-C3-H18=178.47          
C5-C6-N2-C1=181.68            C5-C6-N2-C3=  4.18            C7-C6-N2-C1=  1.67            C7-C6-N2-C3=184.17            
N2-C6-C5-N13=182.81           C7-C6-C5-N13=  2.82           O8-C7-C6-N2=354.96            O8-C7-C6-C5=174.95            
N9-C7-C6-N2=174.48            N9-C7-C6-C5=354.46            C10-N9-C7-C6=183.78           C10-N9-C7-O8=  3.30           
C11-N9-C7-C6=  3.51           C11-N9-C7-O8=183.03           H19-C10-N9-C7=350.34          H19-C10-N9-C11=170.58         
H20-C10-N9-C7=110.60          H20-C10-N9-C11=290.84         H21-C10-N9-C7=229.46          H21-C10-N9-C11= 49.70         
           -------------------------------------------------
          |                Final Singlepoint                |
           -------------------------------------------------

          ...................................................
          :                      SETUP                      :
          :.................................................:
          :  # basis functions                  67          :
          :  # atomic orbitals                  67          :
          :  # shells                           39          :
          :  # electrons                        74          :
          :  max. iterations                   250          :
          :  Hamiltonian                  GFN2-xTB          :
          :  restarted?                      false          :
          :  GBSA solvation                  false          :
          :  PC potential                    false          :
          :  electronic temp.         5000.0000000     K    :
          :  accuracy                    1.0000000          :
          :  -> integral cutoff          0.2500000E+02      :
          :  -> integral neglect         0.1000000E-07      :
          :  -> SCF convergence          0.1000000E-05 Eh   :
          :  -> wf. convergence          0.1000000E-03 e    :
          :  Broyden damping             0.4000000          :
          ...................................................

 iter      E             dE          RMSdq      gap      omega  full diag
   1    -42.6445137 -0.426445E+02  0.921E-05    0.23       0.0  T
   2    -42.6445137  0.520330E-10  0.806E-05    0.23     248.1  T
   3    -42.6445137 -0.737899E-10  0.658E-05    0.23     304.0  T

   *** convergence criteria satisfied after 3 iterations ***

         #    Occupation            Energy/Eh            Energy/eV
      -------------------------------------------------------------
         1        2.0000           -0.9013495             -24.5270
       ...           ...                  ...                  ...
        31        1.9945           -0.6229115             -16.9503
        32        1.9926           -0.6182520             -16.8235
        33        1.9830           -0.6050573             -16.4644
        34        1.9547           -0.5893272             -16.0364
        35        1.9479           -0.5870391             -15.9741
        36        1.8476           -0.5692121             -15.4890
        37        1.2738           -0.5386082             -14.6563 (HOMO)
        38        1.0107           -0.5300476             -14.4233 (LUMO)
        39        0.0031           -0.4274740             -11.6322
        40        0.0010           -0.4100094             -11.1569
        41        0.0002           -0.3799645             -10.3394
        42        0.0000           -0.3030800              -8.2472
       ...           ...                  ...                  ...
        67                          0.5322015              14.4819
      -------------------------------------------------------------
                  HL-Gap            0.0085606 Eh            0.2329 eV
             Fermi-level           -0.5297093 Eh          -14.4141 eV

 SCC (total)                   0 d,  0 h,  0 min,  0.020 sec
 SCC setup                      ...        0 min,  0.000 sec (  0.899%)
 Dispersion                     ...        0 min,  0.000 sec (  0.799%)
 classical contributions        ...        0 min,  0.000 sec (  0.332%)
 integral evaluation            ...        0 min,  0.004 sec ( 20.209%)
 iterations                     ...        0 min,  0.004 sec ( 21.561%)
 molecular gradient             ...        0 min,  0.011 sec ( 55.577%)
 printout                       ...        0 min,  0.000 sec (  0.592%)

         :::::::::::::::::::::::::::::::::::::::::::::::::::::
         ::                     SUMMARY                     ::
         :::::::::::::::::::::::::::::::::::::::::::::::::::::
         :: total energy             -42.115125802402 Eh    ::
         :: gradient norm              0.005513128172 Eh/a0 ::
         :: HOMO-LUMO gap              0.232945539163 eV    ::
         ::.................................................::
         :: SCC energy               -42.644513749404 Eh    ::
         :: -> isotropic ES            0.130071272826 Eh    ::
         :: -> anisotropic ES         -0.005323536927 Eh    ::
         :: -> anisotropic XC          0.017440571574 Eh    ::
         :: -> dispersion             -0.021562717056 Eh    ::
         :: repulsion energy           0.529331359251 Eh    ::
         :: add. restraining           0.000000000000 Eh    ::
         :: total charge               1.000000000051 e     ::
         :::::::::::::::::::::::::::::::::::::::::::::::::::::

           -------------------------------------------------
          |                Property Printout                |
           -------------------------------------------------

    * Orbital Energies and Occupations

         #    Occupation            Energy/Eh            Energy/eV
      -------------------------------------------------------------
         1        2.0000           -0.9013495             -24.5270
       ...           ...                  ...                  ...
        25        1.9994           -0.6570726             -17.8799
        26        1.9991           -0.6521203             -17.7451
        27        1.9989           -0.6480117             -17.6333
        28        1.9986           -0.6444804             -17.5372
        29        1.9978           -0.6377745             -17.3547
        30        1.9977           -0.6367177             -17.3260
        31        1.9945           -0.6229115             -16.9503
        32        1.9926           -0.6182520             -16.8235
        33        1.9830           -0.6050573             -16.4644
        34        1.9547           -0.5893272             -16.0364
        35        1.9479           -0.5870391             -15.9741
        36        1.8476           -0.5692121             -15.4890
        37        1.2738           -0.5386082             -14.6563 (HOMO)
        38        1.0107           -0.5300476             -14.4233 (LUMO)
        39        0.0031           -0.4274740             -11.6322
        40        0.0010           -0.4100094             -11.1569
        41        0.0002           -0.3799645             -10.3394
        42        0.0000           -0.3030800              -8.2472
        43                         -0.2090084              -5.6874
        44                         -0.1614016              -4.3920
        45                         -0.1495819              -4.0703
        46                         -0.0848807              -2.3097
        47                         -0.0684675              -1.8631
        48                         -0.0470403              -1.2800
       ...                                ...                  ...
        67                          0.5322015              14.4819
      -------------------------------------------------------------
                  HL-Gap            0.0085606 Eh            0.2329 eV
             Fermi-level           -0.5297093 Eh          -14.4141 eV

     #   Z          covCN         q      C6AA      α(0)
     1   6 C        3.697    -0.082    22.250     6.747
     2   7 N        2.739     0.034    20.649     6.749
     3   6 C        2.786     0.123    25.276     8.235
     4   7 N        1.773    -0.200    26.133     7.570
     5   6 C        1.949    -0.033    31.967     9.131
     6   6 C        2.917     0.030    27.330     8.573
     7   6 C        2.773     0.275    22.356     7.744
     8   8 O        0.858    -0.330    20.332     6.046
     9   7 N        2.739    -0.064    22.481     7.042
    10   6 C        3.710    -0.063    21.850     6.680
    11   6 C        2.733     0.316    21.629     7.614
    12   8 O        0.859    -0.315    20.055     6.004
    13   7 N        2.741     0.026    20.792     6.772
    14   6 C        3.705    -0.071    22.008     6.707
    15   1 H        0.925     0.135     1.498     1.914
    16   1 H        0.924     0.100     1.789     2.092
    17   1 H        0.924     0.108     1.711     2.046
    18   1 H        0.924     0.116     1.642     2.004
    19   1 H        0.925     0.119     1.619     1.990
    20   1 H        0.924     0.108     1.716     2.048
    21   1 H        0.925     0.111     1.687     2.031
    22   1 H        0.925     0.107     1.718     2.050
    23   1 H        0.924     0.119     1.619     1.990
    24   1 H        0.924     0.117     1.636     2.000
    25   1 H        0.860     0.212     1.047     1.603

 Mol. C6AA /au·bohr⁶  :       6570.033692
 Mol. C8AA /au·bohr⁸  :     151108.721145
 Mol. α(0) /au        :        123.381118


Wiberg/Mayer (AO) data.
largest (>0.10) Wiberg bond orders for each atom

 ---------------------------------------------------------------------------
     #   Z sym  total        # sym  WBO       # sym  WBO       # sym  WBO
 ---------------------------------------------------------------------------
     1   6 C    3.892 --     2 N    0.998    16 H    0.959    15 H    0.940
                            17 H    0.939
     2   7 N    3.429 --     6 C    1.183     3 C    1.109     1 C    0.998
     3   6 C    3.914 --     4 N    1.859     2 N    1.109    18 H    0.890
     4   7 N    2.923 --     3 C    1.859    25 H    0.909
     5   6 C    3.074 --     6 C    1.400    13 N    1.399
     6   6 C    3.757 --     5 C    1.400     2 N    1.183     7 C    0.981
     7   6 C    3.889 --     8 O    1.673     9 N    1.138     6 C    0.981
     8   8 O    1.989 --     7 C    1.673     9 N    0.130
     9   7 N    3.547 --     7 C    1.138    11 C    1.127    10 C    0.962
                             8 O    0.130    12 O    0.127
    10   6 C    3.880 --    19 H    0.963     9 N    0.962    21 H    0.958
                            20 H    0.954
    11   6 C    3.913 --    12 O    1.715     9 N    1.127    13 N    0.989
    12   8 O    2.018 --    11 C    1.715     9 N    0.127
    13   7 N    3.546 --     5 C    1.399    11 C    0.989    14 C    0.972
    14   6 C    3.888 --    22 H    0.974    13 N    0.972    24 H    0.950
                            23 H    0.949
    15   1 H    0.970 --     1 C    0.940
    16   1 H    0.977 --     1 C    0.959
    17   1 H    0.957 --     1 C    0.939
    18   1 H    0.966 --     3 C    0.890
    19   1 H    0.981 --    10 C    0.963
    20   1 H    0.975 --    10 C    0.954
    21   1 H    0.977 --    10 C    0.958
    22   1 H    0.986 --    14 C    0.974
    23   1 H    0.970 --    14 C    0.949
    24   1 H    0.971 --    14 C    0.950
    25   1 H    0.939 --     4 N    0.909
 ---------------------------------------------------------------------------

Topologies differ in total number of bonds
Writing topology from bond orders to xtbtopo.mol

molecular dipole:
                 x           y           z       tot (Debye)
 q only:        1.236      -0.984      -0.028
   full:        1.200      -0.736      -0.049       3.581
molecular quadrupole (traceless):
                xx          xy          yy          xz          yz          zz
 q only:       16.339      -0.021       0.918      -3.986      -2.097     -17.257
  q+dip:       15.487       2.988      -3.199      -4.131      -2.211     -12.288
   full:       13.738       2.815      -3.585      -3.751      -2.117     -10.153

           -------------------------------------------------
          |                Geometry Summary                 |
           -------------------------------------------------

      molecular mass/u    :      195.1988581
   center of mass at/Å    :        0.0341221      -0.0756182       0.0115406
  moments of inertia/u·Å² :        0.4317663E+03   0.9684057E+03   0.1386384E+04
rotational constants/cm⁻¹ :        0.3904342E-01   0.1740761E-01   0.1215942E-01

 * 23 selected distances

     #   Z          #   Z                                           value/Å
     1   6 C        2   7 N                                       1.4395999
     2   7 N        3   6 C                                       1.3868848
     3   6 C        4   7 N                                       1.2446438
     2   7 N        6   6 C                                       1.3704608
     5   6 C        6   6 C                                       1.3656024
     7   6 C        8   8 O                                       1.2098072
     7   6 C        9   7 N                                       1.3804647
     9   7 N       10   6 C                                       1.4581268 (max)
     9   7 N       11   6 C                                       1.3768042
    11   6 C       12   8 O                                       1.1979676
     5   6 C       13   7 N                                       1.3041985
    11   6 C       13   7 N                                       1.4183773
    13   7 N       14   6 C                                       1.4475866
     1   6 C       15   1 H                                       1.0890088
     1   6 C       16   1 H                                       1.0908827
     1   6 C       17   1 H                                       1.0947584
     3   6 C       18   1 H                                       1.0941768
    10   6 C       19   1 H                                       1.0877883
    10   6 C       20   1 H                                       1.0910238
    10   6 C       21   1 H                                       1.0896402
    14   6 C       22   1 H                                       1.0865126 (min)
    14   6 C       23   1 H                                       1.0917326
    14   6 C       24   1 H                                       1.0916234

 * 4 distinct bonds (by element types)

   Z      Z             #   av. dist./Å        max./Å        min./Å
   1 H    6 C          10     1.0907148     1.0947584     1.0865126
   6 C    6 C           1     1.3656024     1.3656024     1.3656024
   6 C    7 N          10     1.3827147     1.4581268     1.2446438
   6 C    8 O           2     1.2038874     1.2098072     1.1979676


optimized geometry written to: xtbopt.xyz


           -------------------------------------------------
          | TOTAL ENERGY              -42.115125802402 Eh   |
          | GRADIENT NORM               0.005513128172 Eh/α |
          | HOMO-LUMO GAP               0.232945539163 eV   |
           -------------------------------------------------

------------------------------------------------------------------------
 * finished run on 2024/06/05 at 20:00:12.041     
------------------------------------------------------------------------
 total:
 * wall-time:     0 d,  0 h,  0 min,  0.270 sec
 *  cpu-time:     0 d,  0 h,  0 min,  0.244 sec
 * ratio c/w:     0.900 speedup
 SCF:
 * wall-time:     0 d,  0 h,  0 min,  0.022 sec
 *  cpu-time:     0 d,  0 h,  0 min,  0.022 sec
 * ratio c/w:     1.000 speedup
 ANC optimizer:
 * wall-time:     0 d,  0 h,  0 min,  0.217 sec
 *  cpu-time:     0 d,  0 h,  0 min,  0.211 sec
 * ratio c/w:     0.971 speedup

