25
 energy: -42.109441324928 gnorm: 0.017907876844 xtb: 6.6.1 (8d0f1dd)
C            3.06340598497983        0.95191258495144       -0.18278876466904
N            2.13505288729840       -0.13255706618263       -0.03223735098912
C            2.50778993675716       -1.45148617295860       -0.15153710101508
N            3.51925835434414       -2.05002828661855       -0.50297465498061
C            0.08114282820561       -1.16701829800953        0.26065542439698
C            0.77773848651873       -0.00630771840083        0.12602516254422
C            0.02288187727054        1.25679602895336        0.10796135769532
O            0.53282573182818        2.35150359370293        0.11523442329270
N           -1.35021874509169        1.06432426168398        0.04420959104163
C           -2.19583800198117        2.24531721321992       -0.07504141016102
C           -2.02469654975350       -0.13447322817275        0.06466077882575
O           -3.21323576992807       -0.24548638104872       -0.01967755283891
N           -1.20665290623306       -1.29781571702407        0.23311209105671
C           -1.90315475759148       -2.55304950979837        0.40348086390151
H            2.68459041590494        1.83734872068951        0.32858796935176
H            4.03012990364149        0.67007710677554        0.23607984435433
H            3.19711944307813        1.20302246435141       -1.24086251399403
H            1.58944219870790       -2.06436094119703        0.10643574637022
H           -1.57372392457451        3.12881305602809        0.04807913865727
H           -2.67584805940935        2.26024879927928       -1.05433743715257
H           -2.97330814795601        2.21543390680746        0.68765011345446
H           -1.18042951610084       -3.35903457596689        0.49930016208521
H           -2.55410144635742       -2.72600919208821       -0.45529957636192
H           -2.53439567898661       -2.50785401907023        1.29283252734348
H            4.40465696952809       -1.67107808830545       -0.80837721431259
25
 energy: -42.110964668725 gnorm: 0.009966979820 xtb: 6.6.1 (8d0f1dd)
C            3.05515217167150        0.94982832377994       -0.18618393445560
N            2.13562715496893       -0.14510730495153       -0.04545477566149
C            2.54123116316635       -1.45754373164897       -0.15886704012325
N            3.57836287307910       -2.03423549532309       -0.49315958135811
C            0.06399497313262       -1.17930050769210        0.25169220641733
C            0.77362425230964       -0.02410833282781        0.11200813253966
C            0.02296256904338        1.24417823734233        0.10078101773540
O            0.54024203272756        2.33598583335921        0.10645769209141
N           -1.35293518502326        1.06293095279217        0.04511456275984
C           -2.19147527790833        2.24945788399740       -0.07197769015922
C           -2.03913437164244       -0.12906527593595        0.07180821738237
O           -3.22881926788821       -0.23090532722375       -0.00667142109381
N           -1.23112826843250       -1.29722087411758        0.23926121246837
C           -1.92740239198356       -2.55180085917634        0.40798404874233
H            2.66432031971518        1.83135960230529        0.32213278922937
H            4.01930315349451        0.67598957258015        0.24276051310541
H            3.19855732854522        1.20246661798634       -1.24192349456021
H            1.62445072295829       -2.08097105896070        0.08696426800362
H           -1.56431561292797        3.12975114678860        0.04889244205247
H           -2.67419230374090        2.26596748543110       -1.05002203076237
H           -2.96751209537504        2.22426976619059        0.69264418111448
H           -1.20276117111156       -3.35711833875104        0.49794497523803
H           -2.57915415784548       -2.72263778065029       -0.45011057142583
H           -2.55412286945372       -2.50921910953581        1.30008036056040
H            4.45555577262007       -1.63471288415707       -0.79098446194394
25
 energy: -42.112565857133 gnorm: 0.017229260510 xtb: 6.6.1 (8d0f1dd)
C            3.03566924804746        0.94272915676801       -0.19384916098839
N            2.13044070022464       -0.17060717036957       -0.07376913878145
C            2.59039942101182       -1.47121447159164       -0.17750571643278
N            3.67845902035959       -1.99375006345223       -0.46976354515841
C            0.03541961806403       -1.20532293492124        0.22428259455562
C            0.76521879757084       -0.06043979045400        0.08028272504953
C            0.02387388713909        1.21885541633734        0.08191334974086
O            0.55378788090370        2.30520494562616        0.08731215080878
N           -1.35527144464601        1.05992388013209        0.04653381369896
C           -2.17929634751844        2.25787563844732       -0.06460533907778
C           -2.06132282028014       -0.12031918931803        0.08830724990573
O           -3.25373667315805       -0.20518943627433        0.02426044529639
N           -1.26980889368091       -1.29558985880950        0.24705569016572
C           -1.96908961978160       -2.54789692806683        0.41484871214803
H            2.62403479090031        1.81881063725376        0.30709465397543
H            3.99426411121781        0.68211696312046        0.25572974458795
H            3.19915877014192        1.19834494115067       -1.24537981287135
H            1.69809963161087       -2.12618295164918        0.05359951141721
H           -1.54174680497031        3.13152332595248        0.05118308700147
H           -2.66884299562543        2.27877541627274       -1.03947961584545
H           -2.95132490773841        2.24216471331750        0.70481881676442
H           -1.24473512411153       -3.35498304750948        0.49424656895171
H           -2.62706410366514       -2.71420999685645       -0.43919708877699
H           -2.58759490020291       -2.50859041159040        1.31242723989395
H            4.54144027228618       -1.54379024191452       -0.73917531813246
25
 energy: -42.113498455452 gnorm: 0.019741326394 xtb: 6.6.1 (8d0f1dd)
C            3.01976157115958        0.93453318304128       -0.20052256064855
N            2.12544076236862       -0.19065952281026       -0.09116351888527
C            2.62316727686351       -1.48170979152488       -0.18564046654011
N            3.74641733257250       -1.95253684041495       -0.44991862214916
C            0.01508102218728       -1.22691893363780        0.20114303427888
C            0.75962579202730       -0.09024460362805        0.05739642592013
C            0.02443273018661        1.19744904395391        0.06482423089623
O            0.56263068416485        2.27990768506346        0.06851202172691
N           -1.35539906524647        1.05601436717843        0.04649418063149
C           -2.16671414921866        2.26363153522955       -0.05832940057160
C           -2.07496732742369       -0.11589222733053        0.10136172771931
O           -3.26958468575893       -0.18722412526133        0.05234922052698
N           -1.29419949584957       -1.29500229538028        0.24970324752136
C           -2.00037576924024       -2.54374274157285        0.41862603074397
H            2.59198082075408        1.80826777489572        0.29050724510338
H            3.97312262005680        0.68503698129779        0.26694418706190
H            3.19829129295737        1.18856704789679       -1.24981175227491
H            1.76335592524370       -2.17004765073671        0.02180920764751
H           -1.51943816153632        3.13070087754668        0.05380934202457
H           -2.66233373913222        2.29011392441713       -1.03021156458207
H           -2.93427810485953        2.25564954783705        0.71584648488696
H           -1.28026413861910       -3.35505963750241        0.49214141882571
H           -2.66525217353935       -2.70590730741113       -0.43124337071737
H           -2.61375927572547       -2.50304689120392        1.31976935528842
H            4.59368976970671       -1.45364085834155       -0.69322448653795
25
 energy: -42.114482538891 gnorm: 0.012841268022 xtb: 6.6.1 (8d0f1dd)
C            3.00661204930274        0.92393872091700       -0.20671630308960
N            2.12094775492492       -0.20819966076457       -0.10052257843536
C            2.64683760153024       -1.48992124729329       -0.18749229928709
N            3.79411284073004       -1.90581741145999       -0.43413710106918
C           -0.00163636001057       -1.24611319831478        0.18013852750365
C            0.75597547139545       -0.11720890250963        0.04089132389209
C            0.02383284027704        1.17726876712100        0.04836724706077
O            0.56739036033106        2.25709876562884        0.04610070337092
N           -1.35446772552168        1.05080003667612        0.04526534947476
C           -2.15324785913567        2.26737260557284       -0.05224804264691
C           -2.08371971269040       -0.11466855673411        0.11283641730351
O           -3.27996680067407       -0.17373146289952        0.08134231330636
N           -1.30990230249009       -1.29536945643361        0.24715245575236
C           -2.02699552656541       -2.53901197016870        0.41891848999765
H            2.56625582097561        1.79853214097096        0.27030075178200
H            3.95421216262643        0.68541155716579        0.27791874298602
H            3.19747414677380        1.17133191570423       -1.25520637936284
H            1.83538817176913       -2.21713642817420        0.00123634346148
H           -1.49592313970576        3.12713754049483        0.05757711628757
H           -2.65445070937218        2.30139270375125       -1.02106116679267
H           -2.91558398919679        2.26581665838853        0.72691306220255
H           -1.31497035639144       -3.35711872536878        0.49046540835702
H           -2.69885209992982       -2.69651478997186       -0.42693710194226
H           -2.63761627307789       -2.49200445300400        1.32202959282023
H            4.61872514822466       -1.35504660769318       -0.65196125503636
25
 energy: -42.115015183528 gnorm: 0.006665440883 xtb: 6.6.1 (8d0f1dd)
C            2.99991360060624        0.91475157356737       -0.21098333168622
N            2.11717180251935       -0.21749071868110       -0.10097502662433
C            2.65500137601291       -1.49341259914115       -0.18108840268716
N            3.81320380269374       -1.87033676955374       -0.42062033453182
C           -0.00883520617288       -1.25623239792850        0.16708931282238
C            0.75419224859178       -0.13144703985962        0.03248602051822
C            0.02253125097836        1.16590039065548        0.03572528669029
O            0.56903320782286        2.24458787518942        0.02333154133701
N           -1.35344922689952        1.04671064900661        0.04336366338010
C           -2.14449891327161        2.26843638933227       -0.04626176368405
C           -2.08535542917313       -0.11663026911453        0.11957902823555
O           -3.28211115087756       -0.16895852648030        0.10488291307611
N           -1.31207160101383       -1.29805417244860        0.23920981308521
C           -2.04071805463981       -2.53600307842315        0.41522539410855
H            2.55353009860135        1.79393275578040        0.25092363372098
H            3.94299669568146        0.68502180131714        0.28620512415671
H            3.19935353029949        1.15088528763849       -1.26068608242730
H            1.88398350290442       -2.25271425156702       -0.00805084869928
H           -1.48013966164999        3.12272817301857        0.06288837752436
H           -2.64986279393738        2.30983363916887       -1.01239355360789
H           -2.90180361476318        2.26932739484602        0.73731024745950
H           -1.33778353826037       -3.36133001572419        0.48850137509227
H           -2.71676435840616       -2.68846831371887       -0.42846446044440
H           -2.65057910320428       -2.47887625846968        1.31872628939844
H            4.61349304965704       -1.28392297680898       -0.62475259831654
25
 energy: -42.115125801620 gnorm: 0.005512678882 xtb: 6.6.1 (8d0f1dd)
C            2.99618277183205        0.90859118118206       -0.21447696096114
N            2.11388573029804       -0.22356068574279       -0.10388096293939
C            2.65960947014951       -1.49632143956494       -0.17947705347917
N            3.83094546901405       -1.84964384614501       -0.40811002091366
C           -0.01255476784693       -1.26236492371589        0.15700190673021
C            0.75196935796599       -0.13876526132372        0.02322556242908
C            0.02193932506584        1.16000315205893        0.02483509817313
O            0.57195227852168        2.23734361262823        0.00346930134765
N           -1.35360539870774        1.04486841914067        0.04224662330289
C           -2.14051709906468        2.26966443412923       -0.04008234984585
C           -2.08715331693796       -0.11730795604050        0.12496865041504
O           -3.28413496774502       -0.16589164815737        0.12417191351607
N           -1.31395804552732       -1.30150710119477        0.23283543654825
C           -2.05003523379939       -2.53505738036187        0.41186211203811
H            2.54526932224890        1.79165824007107        0.23586685417736
H            3.93593635045870        0.68562291941500        0.29264547331846
H            3.20406881458356        1.13566044590945       -1.26505714902194
H            1.90813736264896       -2.27440221254415       -0.01484830542604
H           -1.47164670683535        3.12067127406787        0.06800478369783
H           -2.64998627199009        2.31631039822084       -1.00372028615698
H           -2.89355461081748        2.27146459037124        0.74747521250808
H           -1.35271943051423       -3.36504305436915        0.48523737947393
H           -2.72842883437882       -2.68314685874483       -0.43059356636204
H           -2.65778419024906       -2.47091460769378        1.31638873464606
H            4.61661413572608       -1.23969314999459       -0.59881676931921
