      -----------------------------------------------------------      
     |                   =====================                   |     
     |                           x T B                           |     
     |                   =====================                   |     
     |                         S. Grimme                         |     
     |          Mulliken Center for Theoretical Chemistry        |     
     |                    University of Bonn                     |     
      -----------------------------------------------------------      

   * xtb version 6.6.1 (8d0f1dd) compiled by 'conda@1efc2f54142f' on 2023-08-01

   xtb is free software: you can redistribute it and/or modify it under
   the terms of the GNU Lesser General Public License as published by
   the Free Software Foundation, either version 3 of the License, or
   (at your option) any later version.
   
   xtb is distributed in the hope that it will be useful,
   but WITHOUT ANY WARRANTY; without even the implied warranty of
   MERCHANTABILITY or FITNESS FOR A PARTICULAR PURPOSE.  See the
   GNU Lesser General Public License for more details.
   
   Cite this work as:
   * C. Bannwarth, E. Caldeweyher, S. Ehlert, A. Hansen, P. Pracht,
     J. Seibert, S. Spicher, S. Grimme, WIREs Comput. Mol. Sci., 2020, 11,
     e01493. DOI: 10.1002/wcms.1493
   
   for GFN2-xTB:
   * C. Bannwarth, S. Ehlert and S. Grimme., J. Chem. Theory Comput., 2019,
     15, 1652-1671. DOI: 10.1021/acs.jctc.8b01176
   for GFN1-xTB:
   * S. Grimme, C. Bannwarth, P. Shushkov, J. Chem. Theory Comput., 2017,
     13, 1989-2009. DOI: 10.1021/acs.jctc.7b00118
   for GFN0-xTB:
   * P. Pracht, E. Caldeweyher, S. Ehlert, S. Grimme, ChemRxiv, 2019, preprint.
     DOI: 10.26434/chemrxiv.8326202.v1
   for GFN-FF:
   * S. Spicher and S. Grimme, Angew. Chem. Int. Ed., 2020, 59, 15665-15673.
     DOI: 10.1002/anie.202004239
   
   for ALPB and GBSA implicit solvation:
   * S. Ehlert, M. Stahn, S. Spicher, S. Grimme, J. Chem. Theory Comput.,
     2021, 17, 4250-4261. DOI: 10.1021/acs.jctc.1c00471
   
   for DFT-D4:
   * E. Caldeweyher, C. Bannwarth and S. Grimme, J. Chem. Phys., 2017,
     147, 034112. DOI: 10.1063/1.4993215
   * E. Caldeweyher, S. Ehlert, A. Hansen, H. Neugebauer, S. Spicher,
     C. Bannwarth and S. Grimme, J. Chem. Phys., 2019, 150, 154122.
     DOI: 10.1063/1.5090222
   * E. Caldeweyher, J.-M. Mewes, S. Ehlert and S. Grimme, Phys. Chem. Chem. Phys.
     2020, 22, 8499-8512. DOI: 10.1039/D0CP00502A
   
   for sTDA-xTB:
   * S. Grimme and C. Bannwarth, J. Chem. Phys., 2016, 145, 054103.
     DOI: 10.1063/1.4959605
   
   in the mass-spec context:
   * V. Asgeirsson, C. Bauer and S. Grimme, Chem. Sci., 2017, 8, 4879.
     DOI: 10.1039/c7sc00601b
   * J. Koopman and S. Grimme, ACS Omega 2019, 4, 12, 15120-15133.
     DOI: 10.1021/acsomega.9b02011
   
   for metadynamics refer to:
   * S. Grimme, J. Chem. Theory Comput., 2019, 155, 2847-2862
     DOI: 10.1021/acs.jctc.9b00143
   
   for SPH calculations refer to:
   * S. Spicher and S. Grimme, J. Chem. Theory Comput., 2021, 17, 1701-1714
     DOI: 10.1021/acs.jctc.0c01306
   
   with help from (in alphabetical order)
   P. Atkinson, C. Bannwarth, F. Bohle, G. Brandenburg, E. Caldeweyher
   M. Checinski, S. Dohm, S. Ehlert, S. Ehrlich, I. Gerasimov, C. Hölzer
   A. Katbashev, J. Koopman, C. Lavigne, S. Lehtola, F. März, M. Müller,
   F. Musil, H. Neugebauer, J. Pisarek, C. Plett, P. Pracht, F. Pultar,
   J. Seibert, P. Shushkov, S. Spicher, M. Stahn, M. Steiner, T. Strunk,
   J. Stückrath, T. Rose, and J. Unsleber
   
 * started run on 2024/06/05 at 19:59:01.615     

           -------------------------------------------------
          |                Calculation Setup                |
           -------------------------------------------------

          program call               : xtb xtbopt.xyz --opt crude --input .xc2 --gfn2
          hostname                   : n-62-29-35
          coordinate file            : xtbopt.xyz
          omp threads                :                     1

   ID    Z sym.   atoms
    1    6 C      1, 3, 5-7, 10, 11, 14
    2    7 N      2, 4, 9, 13
    3    8 O      8, 12
    4    1 H      15-25

molecular fragmentation (1/2 indicates fragments):
1111111111111211111112221
# atoms in fragment 1/2:    21     4
 fragment masses (1/2) :      180.16       15.03
CMA distance (Bohr)    :  10.146
constraining FC (au)   :  0.0500
########################################################################
[WARNING] Please study the warnings concerning your input carefully
-1- readin_getIntValue: could not parse ''
########################################################################

           -------------------------------------------------
          |                 G F N 2 - x T B                 |
           -------------------------------------------------

        Reference                      10.1021/acs.jctc.8b01176
      * Hamiltonian:
        H0-scaling (s, p, d)           1.850000    2.230000    2.230000
        zeta-weighting                 0.500000
      * Dispersion:
        s8                             2.700000
        a1                             0.520000
        a2                             5.000000
        s9                             5.000000
      * Repulsion:
        kExp                           1.500000    1.000000
        rExp                           1.000000
      * Coulomb:
        alpha                          2.000000
        third order                    shell-resolved
        anisotropic                    true
        a3                             3.000000
        a5                             4.000000
        cn-shift                       1.200000
        cn-exp                         4.000000
        max-rad                        5.000000

q/qsh data taken from xtbrestart
CAMM data taken from xtbrestart

          ...................................................
          :                      SETUP                      :
          :.................................................:
          :  # basis functions                  67          :
          :  # atomic orbitals                  67          :
          :  # shells                           39          :
          :  # electrons                        74          :
          :  max. iterations                   250          :
          :  Hamiltonian                  GFN2-xTB          :
          :  restarted?                       true          :
          :  GBSA solvation                  false          :
          :  PC potential                    false          :
          :  electronic temp.         5000.0000000     K    :
          :  accuracy                    1.0000000          :
          :  -> integral cutoff          0.2500000E+02      :
          :  -> integral neglect         0.1000000E-07      :
          :  -> SCF convergence          0.1000000E-05 Eh   :
          :  -> wf. convergence          0.1000000E-03 e    :
          :  Broyden damping             0.4000000          :
          ...................................................

 iter      E             dE          RMSdq      gap      omega  full diag
   1    -42.6639875 -0.426640E+02  0.246E-05    1.16       0.0  T
   2    -42.6639875  0.138002E-09  0.672E-05    1.16     297.8  T
   3    -42.6639875 -0.148731E-09  0.118E-05    1.16    1701.2  T

   *** convergence criteria satisfied after 3 iterations ***

         #    Occupation            Energy/Eh            Energy/eV
      -------------------------------------------------------------
         1        2.0000           -0.9031300             -24.5754
       ...           ...                  ...                  ...
        31        1.9970           -0.6111706             -16.6308
        32        1.9938           -0.5997835             -16.3209
        33        1.9653           -0.5723428             -15.5742
        34        1.9075           -0.5563289             -15.1385
        35        1.8971           -0.5545588             -15.0903
        36        1.8457           -0.5477095             -14.9039
        37        1.7475           -0.5390475             -14.6682 (HOMO)
        38        0.6416           -0.4965431             -13.5116 (LUMO)
        39        0.0118           -0.4272764             -11.6268
        40        0.0010           -0.3875410             -10.5455
        41        0.0001           -0.3553064              -9.6684
        42        0.0000           -0.2679938              -7.2925
       ...           ...                  ...                  ...
        67                          0.5406175              14.7110
      -------------------------------------------------------------
                  HL-Gap            0.0425044 Eh            1.1566 eV
             Fermi-level           -0.5084184 Eh          -13.8348 eV

 SCC (total)                   0 d,  0 h,  0 min,  0.024 sec
 SCC setup                      ...        0 min,  0.000 sec (  1.169%)
 Dispersion                     ...        0 min,  0.000 sec (  1.412%)
 classical contributions        ...        0 min,  0.000 sec (  0.408%)
 integral evaluation            ...        0 min,  0.006 sec ( 24.341%)
 iterations                     ...        0 min,  0.006 sec ( 25.647%)
 molecular gradient             ...        0 min,  0.011 sec ( 46.341%)
 printout                       ...        0 min,  0.000 sec (  0.628%)

         :::::::::::::::::::::::::::::::::::::::::::::::::::::
         ::                     SUMMARY                     ::
         :::::::::::::::::::::::::::::::::::::::::::::::::::::
         :: total energy             -42.135886006772 Eh    ::
         :: gradient norm              0.003068338282 Eh/a0 ::
         :: HOMO-LUMO gap              1.156603590583 eV    ::
         ::.................................................::
         :: SCC energy               -42.663987501769 Eh    ::
         :: -> isotropic ES            0.140473512511 Eh    ::
         :: -> anisotropic ES         -0.011316118258 Eh    ::
         :: -> anisotropic XC          0.020175273922 Eh    ::
         :: -> dispersion             -0.020999781725 Eh    ::
         :: repulsion energy           0.528057841142 Eh    ::
         :: add. restraining           0.000000000000 Eh    ::
         :: total charge               1.000000000000 e     ::
         :::::::::::::::::::::::::::::::::::::::::::::::::::::

      ----------------------------------------------------------- 
     |                   =====================                   |
     |                        A N C O P T                        |
     |                   =====================                   |
     |               Approximate Normal Coordinate               |
     |                Rational Function Optimizer                |
      ----------------------------------------------------------- 

          ...................................................
          :                      SETUP                      :
          :.................................................:
          :   optimization level             crude          :
          :   max. optcycles                   200          :
          :   ANC micro-cycles                  20          :
          :   degrees of freedom                69          :
          :.................................................:
          :   RF solver                   davidson          :
          :   write xtbopt.log                true          :
          :   linear?                        false          :
          :   energy convergence         0.5000000E-03 Eh   :
          :   grad. convergence          0.1000000E-01 Eh/α :
          :   maxmium RF displ.          1.0000000          :
          :   Hlow (freq-cutoff)         0.1000000E-01      :
          :   Hmax (freq-cutoff)         5.0000000          :
          :   S6 in model hess.         20.0000000          :
          ...................................................

generating ANC from model Hessian ...
Using Lindh-Hessian (1995)
 Shifting diagonal of input Hessian by    9.9628058611763871E-003
 Lowest  eigenvalues of input Hessian
    0.000000    0.000000    0.000000    0.000000    0.000000    0.000000
    0.010000    0.010104    0.010144    0.010496    0.010622    0.010683
    0.011752    0.013735    0.014421    0.019062    0.021019    0.022283
 Highest eigenvalues
    2.053166    2.164325    2.212426    2.276460    2.415784    2.496423


........................................................................
.............................. CYCLE    1 ..............................
........................................................................

 iter      E             dE          RMSdq      gap      omega  full diag
   1    -42.6639875 -0.426640E+02  0.520E-06    1.16       0.0  T
   2    -42.6639875 -0.163425E-12  0.356E-06    1.16    5618.0  T
   3    -42.6639875 -0.710543E-13  0.215E-06    1.16    9321.4  T
     SCC iter.                  ...        0 min,  0.005 sec
     gradient                   ...        0 min,  0.011 sec
 * total energy  :   -42.1358860 Eh     change       -0.2756906E-11 Eh
   gradient norm :     0.0030684 Eh/α   predicted     0.0000000E+00 (-100.00%)
   displ. norm   :     0.1765720 α      lambda       -0.3693065E-03
   maximum displ.:     0.1403694 α      in ANC's #7, #5, #1, ...

   *** GEOMETRY OPTIMIZATION CONVERGED AFTER 1 ITERATIONS ***

------------------------------------------------------------------------
 total energy gain   :        -0.0000000 Eh       -0.0000 kcal/mol
 total RMSD          :         0.0000000 a0        0.0000 Å
 total power (kW/mol):        -0.0000000 (step)   -0.0000 (real)
------------------------------------------------------------------------

 ANCopt (total)                0 d,  0 h,  0 min,  0.029 sec
 optimizer setup                ...        0 min,  0.000 sec (  1.305%)
 model hessian                  ...        0 min,  0.005 sec ( 17.268%)
 ANC generation                 ...        0 min,  0.001 sec (  3.312%)
 coordinate transformation      ...        0 min,  0.000 sec (  0.063%)
 single point calculation       ...        0 min,  0.021 sec ( 71.211%)
 optimization log               ...        0 min,  0.002 sec (  5.955%)
 hessian update                 ...        0 min,  0.000 sec (  0.004%)
 rational function              ...        0 min,  0.000 sec (  0.582%)

================
 final structure:
================
25
 xtb: 6.6.1 (8d0f1dd)
C            3.42975171510597        1.61794095038068        0.02092352571600
N            2.61364516234872        0.43161232562552        0.00666017108575
C            3.03391545826950       -0.82608600866619        0.00229694220764
N            1.98660151764334       -1.66829185641191       -0.00129758047140
C            0.83480300196374       -0.92250641655634        0.00166410703783
C            1.24675172835163        0.41655059946631        0.00682351951670
C            0.26286153207324        1.47695411553671       -0.00231135547798
O            0.50887137326537        2.66656384613084       -0.01168722050528
N           -1.02313900279184        0.96576626734806       -0.00257987005341
C           -2.12571585940628        1.90482463156178       -0.00712636484108
C           -1.38319888281092       -0.40424820442482        0.00041617716613
O           -2.56085948546439       -0.68971990027507        0.00256331567569
N           -0.40452270590287       -1.34349309290908       -0.00125049346896
C           -3.25989781037668       -3.54531386910081       -0.00908998679570
H            3.95533053394251        1.70452123079798        0.97258892009540
H            4.16282875074839        1.58399934197257       -0.78458760423035
H            2.78219900675775        2.48522027800665       -0.10623831967597
H            4.06378567532386       -1.12893023953670        0.00068434051420
H           -1.71694151620067        2.91343046707154       -0.00071205675616
H           -2.74109934630807        1.74987249648412       -0.89469638572520
H           -2.75330607038817        1.74256519861358        0.87049134194712
H           -3.05558466909592       -4.05219454514088        0.91253085501518
H           -3.06076993964385       -4.03476541132935       -0.94175471784683
H           -3.66053374839847       -2.54812190654687        0.00157630369893
H            2.02465509509343       -2.67791175649808       -0.00471594592876

 Bond Distances (Angstroems)
 ---------------------------
C1-N2=1.4400         C1-H15=1.0906        C1-H16=1.0897        C1-H17=1.0898        N2-C1=1.4400         N2-C3=1.3261         
N2-C6=1.3670         C3-N2=1.3261         C3-N4=1.3439         C3-H18=1.0735        N4-C3=1.3439         N4-C5=1.3722         
N4-H25=1.0103        C5-N4=1.3722         C5-C6=1.4010         C5-N13=1.3089        C6-N2=1.3670         C6-C5=1.4010         
C6-C7=1.4466         C7-C6=1.4466         C7-O8=1.2148         C7-N9=1.3839         O8-C7=1.2148         N9-C7=1.3839         
N9-C10=1.4483        N9-C11=1.4165        C10-N9=1.4483        C10-H19=1.0883       C10-H20=1.0911       C10-H21=1.0911       
C11-N9=1.4165        C11-O12=1.2118       C11-N13=1.3565       O12-C11=1.2118       N13-C5=1.3089        N13-C11=1.3565       
C14-H22=1.0715       C14-H23=1.0720       C14-H24=1.0747       H15-C1=1.0906        H16-C1=1.0897        H17-C1=1.0898        
H18-C3=1.0735        H19-C10=1.0883       H20-C10=1.0911       H21-C10=1.0911       H22-C14=1.0715       H23-C14=1.0720       
H24-C14=1.0747       H25-N4=1.0103        
 C  H  Rav=1.0832 sigma=0.0085  Rmin=1.0715  Rmax=1.0911    10
 C  C  Rav=1.4238 sigma=0.0228  Rmin=1.4010  Rmax=1.4466     2
 N  H  Rav=1.0103 sigma=0.0000  Rmin=1.0103  Rmax=1.0103     1
 N  C  Rav=1.3763 sigma=0.0442  Rmin=1.3089  Rmax=1.4483    10
 O  C  Rav=1.2133 sigma=0.0015  Rmin=1.2118  Rmax=1.2148     2

 selected bond angles (degree)
 --------------------
H15-C1-N2=110.31               H16-C1-N2=110.38               H16-C1-H15=108.86              H17-C1-N2=108.52               
H17-C1-H15=108.97              H17-C1-H16=109.77              C3-N2-C1=127.00                C6-N2-C1=125.15                
C6-N2-C3=107.85                N4-C3-N2=110.33                H18-C3-N2=124.86               H18-C3-N4=124.81               
C5-N4-C3=108.27                H25-N4-C3=126.65               H25-N4-C5=125.08               C6-C5-N4=105.82                
N13-C5-N4=128.31               N13-C5-C6=125.86               C5-C6-N2=107.73                C7-C6-N2=132.22                
C7-C6-C5=120.04                O8-C7-C6=125.46                N9-C7-C6=111.18                N9-C7-O8=123.36                
C10-N9-C7=117.90               C11-N9-C7=126.40               C11-N9-C10=115.70              H19-C10-N9=108.36              
H20-C10-N9=109.87              H20-C10-H19=110.38             H21-C10-N9=109.81              H21-C10-H19=110.43             
H21-C10-H20=107.99             

 selected dihedral angles (degree)
 ---------------------------------
C3-N2-C1-H15=292.24           C3-N2-C1-H16= 52.59           C3-N2-C1-H17=172.93           C6-N2-C1-H15=111.64           
C6-N2-C1-H16=231.99           C6-N2-C1-H17=352.33           N4-C3-N2-C1=179.53            N4-C3-N2-C6=  0.04            
H18-C3-N2-C1=359.46           H18-C3-N2-C6=179.97           C5-N4-C3-N2=359.96            C5-N4-C3-H18=180.03           
H25-N4-C3-N2=180.02           H25-N4-C3-H18=  0.08          C6-C5-N4-C3=  0.00            C6-C5-N4-H25=179.97           
N13-C5-N4-C3=179.94           N13-C5-N4-H25=359.89          C5-C6-N2-C1=180.48            C5-C6-N2-C3=359.97            
C7-C6-N2-C1=  1.19            C7-C6-N2-C3=180.69            N2-C6-C5-N4=  0.00            N2-C6-C5-N13=180.08           
C7-C6-C5-N4=179.39            C7-C6-C5-N13=359.46           O8-C7-C6-N2=359.95            O8-C7-C6-C5=180.74            
N9-C7-C6-N2=179.79            N9-C7-C6-C5=  0.58            C10-N9-C7-C6=179.81           C10-N9-C7-O8=359.66           
C11-N9-C7-C6=359.78           C11-N9-C7-O8=179.62           H19-C10-N9-C7=359.50          H19-C10-N9-C11=179.54         
H20-C10-N9-C7=120.17          H20-C10-N9-C11=300.20         H21-C10-N9-C7=238.80          H21-C10-N9-C11= 58.84         

 CMA Distance (Angstroems)
 ---------------------------
R(CMA):  5.3690
           -------------------------------------------------
          |                Final Singlepoint                |
           -------------------------------------------------

          ...................................................
          :                      SETUP                      :
          :.................................................:
          :  # basis functions                  67          :
          :  # atomic orbitals                  67          :
          :  # shells                           39          :
          :  # electrons                        74          :
          :  max. iterations                   250          :
          :  Hamiltonian                  GFN2-xTB          :
          :  restarted?                      false          :
          :  GBSA solvation                  false          :
          :  PC potential                    false          :
          :  electronic temp.         5000.0000000     K    :
          :  accuracy                    1.0000000          :
          :  -> integral cutoff          0.2500000E+02      :
          :  -> integral neglect         0.1000000E-07      :
          :  -> SCF convergence          0.1000000E-05 Eh   :
          :  -> wf. convergence          0.1000000E-03 e    :
          :  Broyden damping             0.4000000          :
          ...................................................

 iter      E             dE          RMSdq      gap      omega  full diag
   1    -42.6639875 -0.426640E+02  0.357E-06    1.16       0.0  T
   2    -42.6639875  0.525802E-11  0.128E-05    1.16    1568.6  T
   3    -42.6639875 -0.560618E-11  0.305E-07    1.16   65619.2  T

   *** convergence criteria satisfied after 3 iterations ***

         #    Occupation            Energy/Eh            Energy/eV
      -------------------------------------------------------------
         1        2.0000           -0.9031300             -24.5754
       ...           ...                  ...                  ...
        31        1.9970           -0.6111707             -16.6308
        32        1.9938           -0.5997835             -16.3209
        33        1.9653           -0.5723428             -15.5742
        34        1.9075           -0.5563289             -15.1385
        35        1.8971           -0.5545588             -15.0903
        36        1.8457           -0.5477095             -14.9039
        37        1.7475           -0.5390475             -14.6682 (HOMO)
        38        0.6416           -0.4965429             -13.5116 (LUMO)
        39        0.0118           -0.4272764             -11.6268
        40        0.0010           -0.3875410             -10.5455
        41        0.0001           -0.3553065              -9.6684
        42        0.0000           -0.2679938              -7.2925
       ...           ...                  ...                  ...
        67                          0.5406175              14.7110
      -------------------------------------------------------------
                  HL-Gap            0.0425046 Eh            1.1566 eV
             Fermi-level           -0.5084183 Eh          -13.8348 eV

 SCC (total)                   0 d,  0 h,  0 min,  0.021 sec
 SCC setup                      ...        0 min,  0.000 sec (  0.843%)
 Dispersion                     ...        0 min,  0.000 sec (  0.889%)
 classical contributions        ...        0 min,  0.000 sec (  0.318%)
 integral evaluation            ...        0 min,  0.004 sec ( 20.618%)
 iterations                     ...        0 min,  0.005 sec ( 23.597%)
 molecular gradient             ...        0 min,  0.011 sec ( 53.082%)
 printout                       ...        0 min,  0.000 sec (  0.595%)

         :::::::::::::::::::::::::::::::::::::::::::::::::::::
         ::                     SUMMARY                     ::
         :::::::::::::::::::::::::::::::::::::::::::::::::::::
         :: total energy             -42.135886006774 Eh    ::
         :: gradient norm              0.003068355410 Eh/a0 ::
         :: HOMO-LUMO gap              1.156607960974 eV    ::
         ::.................................................::
         :: SCC energy               -42.663987501772 Eh    ::
         :: -> isotropic ES            0.140473569348 Eh    ::
         :: -> anisotropic ES         -0.011316157889 Eh    ::
         :: -> anisotropic XC          0.020175286202 Eh    ::
         :: -> dispersion             -0.020999784228 Eh    ::
         :: repulsion energy           0.528057841142 Eh    ::
         :: add. restraining           0.000000000000 Eh    ::
         :: total charge               1.000000000000 e     ::
         :::::::::::::::::::::::::::::::::::::::::::::::::::::

           -------------------------------------------------
          |                Property Printout                |
           -------------------------------------------------

    * Orbital Energies and Occupations

         #    Occupation            Energy/Eh            Energy/eV
      -------------------------------------------------------------
         1        2.0000           -0.9031300             -24.5754
       ...           ...                  ...                  ...
        25        1.9998           -0.6566157             -17.8674
        26        1.9993           -0.6348447             -17.2750
        27        1.9993           -0.6336488             -17.2425
        28        1.9983           -0.6199346             -16.8693
        29        1.9980           -0.6174391             -16.8014
        30        1.9974           -0.6138620             -16.7040
        31        1.9970           -0.6111707             -16.6308
        32        1.9938           -0.5997835             -16.3209
        33        1.9653           -0.5723428             -15.5742
        34        1.9075           -0.5563289             -15.1385
        35        1.8971           -0.5545588             -15.0903
        36        1.8457           -0.5477095             -14.9039
        37        1.7475           -0.5390475             -14.6682 (HOMO)
        38        0.6416           -0.4965429             -13.5116 (LUMO)
        39        0.0118           -0.4272764             -11.6268
        40        0.0010           -0.3875410             -10.5455
        41        0.0001           -0.3553065              -9.6684
        42        0.0000           -0.2679938              -7.2925
        43                         -0.1848982              -5.0313
        44                         -0.1647551              -4.4832
        45                         -0.1226253              -3.3368
        46                         -0.0730612              -1.9881
        47                         -0.0268910              -0.7317
        48                         -0.0227991              -0.6204
       ...                                ...                  ...
        67                          0.5406175              14.7110
      -------------------------------------------------------------
                  HL-Gap            0.0425046 Eh            1.1566 eV
             Fermi-level           -0.5084183 Eh          -13.8348 eV

     #   Z          covCN         q      C6AA      α(0)
     1   6 C        3.692    -0.093    22.461     6.782
     2   7 N        2.827     0.087    19.737     6.598
     3   6 C        3.063     0.064    26.497     8.441
     4   7 N        2.796    -0.055    22.309     7.015
     5   6 C        3.068     0.149    24.703     8.150
     6   6 C        3.134    -0.022    28.321     8.711
     7   6 C        2.767     0.276    22.327     7.738
     8   8 O        0.858    -0.365    20.985     6.142
     9   7 N        2.748    -0.083    22.861     7.101
    10   6 C        3.704    -0.055    21.725     6.664
    11   6 C        2.759     0.337    21.275     7.553
    12   8 O        0.860    -0.359    20.876     6.126
    13   7 N        1.832    -0.266    27.750     7.806
    14   6 C        2.779    -0.071    29.741     8.932
    15   1 H        0.924     0.109     1.703     2.041
    16   1 H        0.925     0.106     1.729     2.056
    17   1 H        0.925     0.136     1.490     1.909
    18   1 H        0.926     0.126     1.569     1.959
    19   1 H        0.925     0.113     1.670     2.021
    20   1 H        0.924     0.104     1.747     2.067
    21   1 H        0.924     0.104     1.745     2.066
    22   1 H        0.926     0.129     1.540     1.941
    23   1 H        0.926     0.129     1.540     1.940
    24   1 H        0.926     0.161     1.320     1.797
    25   1 H        0.860     0.236     0.939     1.518

 Mol. C6AA /au·bohr⁶  :       6633.641278
 Mol. C8AA /au·bohr⁸  :     152930.297300
 Mol. α(0) /au        :        125.075012


Wiberg/Mayer (AO) data.
largest (>0.10) Wiberg bond orders for each atom

 ---------------------------------------------------------------------------
     #   Z sym  total        # sym  WBO       # sym  WBO       # sym  WBO
 ---------------------------------------------------------------------------
     1   6 C    3.911 --     2 N    0.983    16 H    0.962    17 H    0.960
                            15 H    0.956
     2   7 N    3.711 --     3 C    1.395     6 C    1.181     1 C    0.983
     3   6 C    3.878 --     2 N    1.395     4 N    1.314    18 H    0.951
     4   7 N    3.595 --     3 C    1.314     5 C    1.153    25 H    0.917
     5   6 C    3.948 --    13 N    1.375     6 C    1.263     4 N    1.153
     6   6 C    3.812 --     5 C    1.263     2 N    1.181     7 C    1.077
     7   6 C    3.954 --     8 O    1.641     9 N    1.139     6 C    1.077
     8   8 O    1.945 --     7 C    1.641     9 N    0.139
     9   7 N    3.478 --     7 C    1.139    11 C    1.041    10 C    0.987
                             8 O    0.139
    10   6 C    3.888 --     9 N    0.987    19 H    0.961    21 H    0.949
                            20 H    0.949
    11   6 C    3.943 --    12 O    1.633    13 N    1.182     9 N    1.041
    12   8 O    1.916 --    11 C    1.633
    13   7 N    2.836 --     5 C    1.375    11 C    1.182
    14   6 C    2.940 --    22 H    0.980    23 H    0.980    24 H    0.961
    15   1 H    0.985 --     1 C    0.956
    16   1 H    0.986 --     1 C    0.962
    17   1 H    0.980 --     1 C    0.960
    18   1 H    0.983 --     3 C    0.951
    19   1 H    0.979 --    10 C    0.961
    20   1 H    0.968 --    10 C    0.949
    21   1 H    0.968 --    10 C    0.949
    22   1 H    0.982 --    14 C    0.980
    23   1 H    0.982 --    14 C    0.980
    24   1 H    0.971 --    14 C    0.961
    25   1 H    0.943 --     4 N    0.917
 ---------------------------------------------------------------------------

Topologies differ in total number of bonds
Writing topology from bond orders to xtbtopo.mol

molecular dipole:
                 x           y           z       tot (Debye)
 q only:        2.016      -2.068       0.009
   full:        2.466      -2.220       0.014       8.433
molecular quadrupole (traceless):
                xx          xy          yy          xz          yz          zz
 q only:       27.824       8.827       1.160       0.237       0.159     -28.983
  q+dip:       26.224       4.433      -0.440       0.272       0.198     -25.784
   full:       26.126       5.001      -1.804       0.269       0.202     -24.322

           -------------------------------------------------
          |                Geometry Summary                 |
           -------------------------------------------------

      molecular mass/u    :      195.1988581
   center of mass at/Å    :        0.1849426       0.0171615       0.0003287
  moments of inertia/u·Å² :        0.4757050E+03   0.9516627E+03   0.1417578E+04
rotational constants/cm⁻¹ :        0.3543716E-01   0.1771387E-01   0.1189186E-01

 * 25 selected distances

     #   Z          #   Z                                           value/Å
     1   6 C        2   7 N                                       1.4400032
     2   7 N        3   6 C                                       1.3260662
     3   6 C        4   7 N                                       1.3439458
     4   7 N        5   6 C                                       1.3721679
     2   7 N        6   6 C                                       1.3669766
     5   6 C        6   6 C                                       1.4010005
     6   6 C        7   6 C                                       1.4465750
     7   6 C        8   8 O                                       1.2148170
     7   6 C        9   7 N                                       1.3838753
     9   7 N       10   6 C                                       1.4482843 (max)
     9   7 N       11   6 C                                       1.4165423
    11   6 C       12   8 O                                       1.2117687
     5   6 C       13   7 N                                       1.3088800
    11   6 C       13   7 N                                       1.3564627
     1   6 C       15   1 H                                       1.0905946
     1   6 C       16   1 H                                       1.0896799
     1   6 C       17   1 H                                       1.0898020
     3   6 C       18   1 H                                       1.0734757
    10   6 C       19   1 H                                       1.0883123
    10   6 C       20   1 H                                       1.0910948
    10   6 C       21   1 H                                       1.0910594
    14   6 C       22   1 H                                       1.0714743
    14   6 C       23   1 H                                       1.0719508
    14   6 C       24   1 H                                       1.0747162
     4   7 N       25   1 H                                       1.0103427 (min)

 * 5 distinct bonds (by element types)

   Z      Z             #   av. dist./Å        max./Å        min./Å
   1 H    6 C          10     1.0832160     1.0910948     1.0714743
   6 C    6 C           2     1.4237878     1.4465750     1.4010005
   1 H    7 N           1     1.0103427     1.0103427     1.0103427
   6 C    7 N          10     1.3763204     1.4482843     1.3088800
   6 C    8 O           2     1.2132929     1.2148170     1.2117687


optimized geometry written to: xtbopt.xyz


           -------------------------------------------------
          | TOTAL ENERGY              -42.135886006774 Eh   |
          | GRADIENT NORM               0.003068355410 Eh/α |
          | HOMO-LUMO GAP               1.156607960974 eV   |
           -------------------------------------------------

------------------------------------------------------------------------
 * finished run on 2024/06/05 at 19:59:01.730     
------------------------------------------------------------------------
 total:
 * wall-time:     0 d,  0 h,  0 min,  0.116 sec
 *  cpu-time:     0 d,  0 h,  0 min,  0.085 sec
 * ratio c/w:     0.735 speedup
 SCF:
 * wall-time:     0 d,  0 h,  0 min,  0.024 sec
 *  cpu-time:     0 d,  0 h,  0 min,  0.024 sec
 * ratio c/w:     1.000 speedup
 ANC optimizer:
 * wall-time:     0 d,  0 h,  0 min,  0.056 sec
 *  cpu-time:     0 d,  0 h,  0 min,  0.049 sec
 * ratio c/w:     0.881 speedup

