25
 energy: 0.000000000000 xtb: 6.6.1 (8d0f1dd)
C            3.23720132972391        1.16630909158653        0.08434468864950
N            2.29877796055224        0.07527476373246        0.03981602671198
C            2.58028186251803       -1.21425391179017        0.03006175752192
N            1.43813944744728       -1.93419254010258        0.00098261751768
C            0.39035684826767       -1.05887462812143       -0.00790371763344
C            0.93510047688824        0.21347817468824        0.01709077332874
C            0.09450143016486        1.40504290868848       -0.00410946993748
O            0.49712746915594        2.54126690785742       -0.00342325656480
N           -1.25076628431515        1.06271869620815       -0.03085477937476
C           -2.21907191394203        2.15522079838987       -0.05001256521996
C           -1.81739470187490       -0.20012724136556       -0.04692818139228
O           -2.99983858926755       -0.37846413507442       -0.07008877579474
N           -0.92618577614240       -1.30210203518959       -0.03682761236648
C           -1.46982251276835       -2.64643077634382       -0.06029819901142
H            3.71247229913541        1.21471443890471        1.06488839270555
H            4.00791460421487        1.03430799217987       -0.67357688121503
H            2.69909982127087        2.09770098766290       -0.09130154035862
H            3.56654087521359       -1.63682977417947        0.04233139674524
H           -1.67107945562430        3.09322822573871       -0.02552706696334
H           -2.82428927394145        2.09428605349656       -0.95318074103337
H           -2.87644002486466        2.07745706351925        0.81450059976605
H           -1.17061985538665       -3.19584861009707        0.83242224714061
H           -1.14560246782873       -3.17511580834413       -0.95688266944647
H           -2.55549768731684       -2.55659960601237       -0.07459039105944
H            1.38130842369251       -2.94313824728853       -0.01389874052104
25
 energy: -5.918177374534 xtb: 6.6.1 (8d0f1dd)
C            3.25381412259261        1.16779277016359        0.08390356755316
N            2.31015821790820        0.10181621542242        0.03312661035554
C            2.60360707472998       -1.24077569844494        0.03205148043044
N            1.42233646282223       -1.93893520474715        0.00261311531623
C            0.40319514034455       -1.05776013379978       -0.00804509507620
C            0.92474601715535        0.22910981708984        0.01289130430034
C            0.11952237965522        1.39117271587858       -0.00444439015917
O            0.50260693399699        2.56438748900303       -0.01147403863379
N           -1.27202118059030        1.05837573456121       -0.00685213391167
C           -2.24254454825356        2.14686208429537       -0.02415847926633
C           -1.81338775228429       -0.19010967277297       -0.04134857570514
O           -3.01253099545641       -0.37899447555659       -0.06661487246128
N           -0.93514551979498       -1.29427564685790       -0.03772721856895
C           -1.46948732939636       -2.63642581764242       -0.06076612712332
H            3.73538700174430        1.21031255433739        1.06503838601434
H            4.02133788548934        1.02927022146501       -0.68008622652860
H            2.71659121873099        2.09755767635896       -0.09112451645130
H            3.57991824859442       -1.65367121947719        0.04272590332255
H           -1.68787066811285        3.08289211278130        0.01039309661117
H           -2.84385683244328        2.09034737666480       -0.92596487979394
H           -2.96022657321599        2.07187390860730        0.79192226646809
H           -1.16695811790914       -3.19042488055011        0.83119523934614
H           -1.14140600438123       -3.16904492720706       -0.95658972175768
H           -2.55484512769904       -2.54835780272580       -0.07502133240213
H            1.36895319593336       -2.94319438137400       -0.01099127212769
25
 energy: -4.628505760316 xtb: 6.6.1 (8d0f1dd)
C            3.26693593300941        1.16299939213674        0.08134976550112
N            2.31691321048717        0.10159454432084        0.03067239277959
C            2.60682422686840       -1.24349121062389        0.03215535076293
N            1.42305413217524       -1.93887460174088        0.00525147801017
C            0.40693849335334       -1.05408711851838       -0.00825606503433
C            0.92951073526335        0.23328528050470        0.00980874967453
C            0.12404808588208        1.39660681568902       -0.00463736441619
O            0.51057190166730        2.56892571014052       -0.01974291097494
N           -1.27766918734628        1.06617741716849        0.01524598417775
C           -2.26876232046153        2.14448257651771        0.00007735200183
C           -1.81145387380431       -0.18446985899574       -0.03578133186902
O           -3.01072861657622       -0.37510959774468       -0.06349903617468
N           -0.93227953467388       -1.28798224577387       -0.03850879420691
C           -1.46731345841400       -2.63061908766245       -0.06151075748532
H            3.75246494425664        1.20250297246874        1.06118854318086
H            4.03216560151301        1.02234046040531       -0.68506212310483
H            2.73370219963809        2.09479008821820       -0.09179620213348
H            3.58246049560220       -1.66048925463471        0.04402247236360
H           -1.71584398119104        3.08137774627081        0.04505665518547
H           -2.86688176693524        2.08375270204021       -0.89970009736001
H           -3.04036445965010        2.06506336587376        0.76814241063038
H           -1.16513773053045       -3.18519420659055        0.83042072675024
H           -1.13862162696465       -3.16378943406694       -0.95682588850882
H           -2.55268427816234       -2.54205678211394       -0.07598025815270
H            1.36421124521932       -2.94324127643642       -0.00680121616040
25
 energy: -2.458543579687 xtb: 6.6.1 (8d0f1dd)
C            3.27933807920144        1.15789483071585        0.07861072890342
N            2.32301191408841        0.10142869275984        0.02788093162842
C            2.60938746967344       -1.24607956333195        0.03256675408097
N            1.42295653837008       -1.93815190877031        0.00976097162293
C            0.41038404637374       -1.05009638932371       -0.00792276614042
C            0.93361753314989        0.23768685072820        0.00649435399545
C            0.12843280379104        1.40213717532516       -0.00579835039330
O            0.51933846248084        2.57267464564687       -0.03022565264833
N           -1.28373933705475        1.07456787937355        0.03503276845107
C           -2.29841658439168        2.14110517352603        0.01888628940320
C           -1.80837742267405       -0.17859233053241       -0.02987940070600
O           -3.00717666415949       -0.37158450734871       -0.05953408436088
N           -0.92924403197666       -1.28156978873392       -0.03873563468791
C           -1.46485827317963       -2.62455673344537       -0.06209962702598
H            3.76812688328201        1.19414823456142        1.05734689381085
H            4.04281220697706        1.01525200547098       -0.68964329081103
H            2.75041694792177        2.09187811564775       -0.09273816493421
H            3.58403970125369       -1.66700787001818        0.04563965086300
H           -1.74696335805298        3.07974470829128        0.07423418638931
H           -2.89225774952253        2.07171107847512       -0.88134280617316
H           -3.12001502966535        2.05479451247867        0.73893248866144
H           -1.16300453301305       -3.17935312319588        0.82999380050062
H           -1.13508592051163       -3.15784341217740       -0.95703468387633
H           -2.55023809395102       -2.53563662446133       -0.07722643670863
H            1.35909282332717       -2.94250703671492       -0.00258759068133
25
 energy: 0.552100618027 xtb: 6.6.1 (8d0f1dd)
C            3.29182522798468        1.15260770303375        0.07583046530490
N            2.32917721290426        0.10150533498648        0.02464025922235
C            2.61258360181033       -1.24816653672138        0.03287036651204
N            1.42383573401962       -1.93645795435340        0.01440165339220
C            0.41423614977743       -1.04532330764919       -0.00745593186860
C            0.93748407081577        0.24327381316237        0.00325297972247
C            0.13192521782800        1.41041178023367       -0.00758477570910
O            0.52772622550406        2.57799318900260       -0.04357296670081
N           -1.28959915044269        1.08334049324585        0.05547675015679
C           -2.32677045966452        2.13896252351706        0.04254420602764
C           -1.80500266651903       -0.17259650903767       -0.02360090022824
O           -3.00309497607845       -0.36932201496334       -0.05667468776103
N           -0.92572923322617       -1.27499433921011       -0.03885289344425
C           -1.46222194005632       -2.61841649551527       -0.06270976612208
H            3.78400976890517        1.18545513386901        1.05337506112497
H            4.05343619982713        1.00763093883447       -0.69425355972023
H            2.76745292407430        2.08899752966997       -0.09358486303047
H            3.58611880495850       -1.67350809706537        0.04710434766081
H           -1.78108602845276        3.08083015396268        0.10377061494661
H           -2.90061313011863        2.06841217568109       -0.85920207111100
H           -3.19915167338707        2.04367184847079        0.70906046124732
H           -1.16081321781941       -3.17377493644875        0.82933049328464
H           -1.13182296837687       -3.15182705962219       -0.95738107409788
H           -2.54764706294893       -2.52928792005803       -0.07819676919017
H            1.35436223869189       -2.94090228145865        0.00242443015341
25
 energy: 4.506373691688 xtb: 6.6.1 (8d0f1dd)
C            3.30395151899486        1.14724765818339        0.07295767427500
N            2.33535097895751        0.10149446943527        0.02095572819737
C            2.61580991386656       -1.25014091664304        0.03321358083392
N            1.42503404102418       -1.93450166783565        0.01880068663949
C            0.41814153468866       -1.04068390698634       -0.00680028113269
C            0.94142156275677        0.24875374568098        0.00048373825424
C            0.13597023981272        1.41810570914006       -0.00798153939715
O            0.53462363224826        2.58326063090963       -0.05747451993124
N           -1.29632725681429        1.09203937329675        0.07585190694579
C           -2.35739513481010        2.13750287597042        0.06834852737905
C           -1.80167646480132       -0.16673713175610       -0.01751472884290
O           -2.99860970249869       -0.36924834388878       -0.05585362832940
N           -0.92192747189156       -1.26864988508988       -0.03878003943286
C           -1.45938548822831       -2.61251044678040       -0.06337945020758
H            3.79923336391471        1.17667524842201        1.04937988952763
H            4.06391145251643        1.00017063455290       -0.69871567759676
H            2.78418887856884        2.08616605820897       -0.09447504736821
H            3.58809544360429       -1.67991238831407        0.04906126889202
H           -1.81721896543367        3.08246238242795        0.13188093947371
H           -2.91130577436873        2.06154366592879       -0.83572578913921
H           -3.27774374514637        2.03233536611579        0.68002786731416
H           -1.15854103508702       -3.16844884666939        0.82860991746589
H           -1.12842578784517       -3.14596954200859       -0.95785059627232
H           -2.54487128400218       -2.52322365149306       -0.07930059642913
H            1.35036561653409       -2.93910773678312        0.00779768524099
25
 energy: 9.096804134544 xtb: 6.6.1 (8d0f1dd)
C            3.31628013820130        1.14171486045908        0.06990044530102
N            2.34244482662242        0.10087524920914        0.01698972177951
C            2.61963301753725       -1.25242367716392        0.03363496785985
N            1.42709017527761       -1.93270888514440        0.02280909712365
C            0.42250965690966       -1.03656337023780       -0.00614186034095
C            0.94698783573253        0.25321835704942       -0.00191084943677
C            0.14319960457120        1.42354064845956       -0.00723985038723
O            0.54053582290146        2.58789930932884       -0.07125852459634
N           -1.29836291718464        1.09857051646040        0.09737067914498
C           -2.36983798812041        2.13827921349619        0.09755679743871
C           -1.79787475297348       -0.16099647279033       -0.01217018964002
O           -2.99363823080930       -0.36911359160515       -0.05973618805640
N           -0.91765847291547       -1.26271034260603       -0.03881952254191
C           -1.45643814850983       -2.60670747495366       -0.06432904440738
H            3.81460740805595        1.16734125029759        1.04512592862541
H            4.07442287509514        0.99252680511018       -0.70337205828322
H            2.80132514278658        2.08346415323579       -0.09526428172204
H            3.59043628034283       -1.68645503249664        0.05165419717430
H           -1.84594215400474        3.08811321351829        0.15999476449825
H           -2.91535001366327        2.05634154676241       -0.80651337087839
H           -3.34514680737884        2.02237397964442        0.65277108503034
H           -1.15645513259454       -3.16269086997596        0.82800700290670
H           -1.12491803885420       -3.14056243730243       -0.95841790994393
H           -2.54197226693718       -2.51689291311761       -0.08094864378956
H            1.34782201842970       -2.93740488089450        0.01400430101182
25
 energy: 14.566355321887 xtb: 6.6.1 (8d0f1dd)
C            3.32944863892992        1.13548412653044        0.06755243081463
N            2.35074127850438        0.09922671567921        0.01370182929566
C            2.62469966100730       -1.25549359881462        0.03375871041613
N            1.43052809945878       -1.93179649878132        0.02508621447120
C            0.42773116253441       -1.03319608603989       -0.00439506820988
C            0.95420945528276        0.25628765174336       -0.00281723267259
C            0.15238621606978        1.42721087337196       -0.00679133235738
O            0.54948301208218        2.58977109775725       -0.08697508089266
N           -1.29690024336532        1.10447511673985        0.11684335576771
C           -2.37562277036494        2.14005117803443        0.12259025627321
C           -1.79318678309293       -0.15480206797508       -0.00642235528824
O           -2.98827669152905       -0.36542315510238       -0.06276318678609
N           -0.91293076419538       -1.25692929384539       -0.03742225226888
C           -1.45367736821400       -2.60083034591757       -0.06483621657318
H            3.83040775150144        1.15685004891540        1.04172719410436
H            4.08587856904894        0.98409161772296       -0.70711742620712
H            2.81961054218028        2.08032778592100       -0.09527426136107
H            3.59403662081724       -1.69348150748406        0.05305052029031
H           -1.86812243061285        3.09605224570579        0.18902487052043
H           -2.92129129995943        2.05354633595629       -0.77744624859354
H           -3.40824349649759        2.01071287998703        0.62648649727877
H           -1.15463018445217       -3.15887896233211        0.82663874838448
H           -1.12280198304632       -3.13412807986784       -0.95952271078918
H           -2.53920818013630       -2.51013489163107       -0.08144512310302
H            1.34693255642050       -2.93634050604182        0.01956287214279
25
 energy: 21.573117871051 xtb: 6.6.1 (8d0f1dd)
C            3.34212384314388        1.12911421828291        0.06455999749643
N            2.35953381273304        0.09644279296418        0.01038078416575
C            2.62998312343764       -1.25952976642532        0.03462891482705
N            1.43416187962378       -1.93200151088678        0.02693810186300
C            0.43317253948996       -1.03105856638778       -0.00289534998563
C            0.96283558758793        0.25672394971806       -0.00210265902562
C            0.16390400571800        1.42882240824809       -0.00647369068924
O            0.56133316968215        2.58954804666211       -0.09949660434308
N           -1.28903967105834        1.10679133419168        0.13263356532458
C           -2.37155735403782        2.14480862472590        0.14480366392756
C           -1.78701442414515       -0.14977868466150       -0.00282875772605
O           -2.98198429872551       -0.35999753562925       -0.06758199491834
N           -0.90783059648711       -1.25240090346645       -0.03733107211563
C           -1.45089837231963       -2.59551858002907       -0.06580607074530
H            3.84568554559028        1.14707739399069        1.03761622047209
H            4.09672873135774        0.97525433641370       -0.71145256036849
H            2.83705339317936        2.07688419403951       -0.09652154661487
H            3.59754201931498       -1.70125364781068        0.05658778577440
H           -1.85465669100765        3.09988946621659        0.21035973867568
H           -2.92717970709104        2.05056511286185       -0.74628416786494
H           -3.46814673817238        2.01049311622784        0.60315797372502
H           -1.15317050826073       -3.15373115005799        0.82600170727074
H           -1.11981715530598       -3.12895091768574       -0.96032184081952
H           -2.53638879971180       -2.50342186444632       -0.08321518700271
H            1.34626682357775       -2.93600258544444        0.02670833100348
25
 energy: 30.789897877530 xtb: 6.6.1 (8d0f1dd)
C            3.35455861110494        1.12249912521774        0.06192054430017
N            2.36820266473767        0.09334126740648        0.00736189882605
C            2.63520842169252       -1.26369492126748        0.03510870718024
N            1.43794202554808       -1.93257501452885        0.02833192579199
C            0.43865076824954       -1.02962626322516       -0.00082337258654
C            0.97162259425056        0.25590581939909       -0.00006032516175
C            0.17653826821029        1.42974845530631       -0.00665665439964
O            0.57530570039102        2.58828593303424       -0.11043024788918
N           -1.27869939055841        1.10893530603711        0.14152933089283
C           -2.36161237937988        2.15088859444256        0.16007288135227
C           -1.77993440886365       -0.14524801497042        0.00117770527210
O           -2.97501255830105       -0.35446536475778       -0.06958943870598
N           -0.90250821563021       -1.24845866068556       -0.03630427091122
C           -1.44807718052442       -2.59058059292735       -0.06673537774168
H            3.86112335232293        1.13603676014583        1.03359601560272
H            4.10694557983317        0.96635916157359       -0.71579719918218
H            2.85462327215312        2.07359041277099       -0.09647522560154
H            3.60080832967523       -1.70897400469879        0.05954850535320
H           -1.83372599234298        3.10484565148386        0.21628857843515
H           -2.93785075259113        2.04535079388134       -0.71448464436843
H           -3.53421218109501        2.01364342281884        0.58031974725914
H           -1.15189419113236       -3.14888107114724        0.82543013412422
H           -1.11617756231471       -3.12374928595622       -0.96109220614232
H           -2.53354701656133       -2.49726372951740       -0.08556185684779
H            1.34703223762391       -2.93584556767528        0.03380898921019
25
 energy: 43.880516086828 xtb: 6.6.1 (8d0f1dd)
C            3.36686548009081        1.11544712413628        0.05938474921021
N            2.37709095003619        0.08941558635539        0.00448266034015
C            2.64072636564721       -1.26837260850138        0.03601635996828
N            1.44224533696852       -1.93374363750966        0.02960235533176
C            0.44461865400443       -1.02903387117379        0.00206967096992
C            0.98097125092073        0.25439109394833        0.00192298883405
C            0.19034197123949        1.43018193484695       -0.00788456821655
O            0.59048582794399        2.58682966702173       -0.12117559820542
N           -1.26547542852024        1.11095500885486        0.14646545931572
C           -2.33989818977902        2.15869512114063        0.17063959655706
C           -1.77122256418919       -0.14132355095251        0.00279808617695
O           -2.96686639836122       -0.34853719906984       -0.07167950935848
N           -0.89646584284600       -1.24563574567278       -0.03468430450120
C           -1.44503235463269       -2.58618470402270       -0.06766209596365
H            3.87607347321705        1.12453327829991        1.02975669759553
H            4.11707635104185        0.95717285974926       -0.71993752717938
H            2.87195836949105        2.06982718287098       -0.09633521832142
H            3.60425780710148       -1.71695644397693        0.06326691188940
H           -1.80785516858706        3.11223447758242        0.21716618359769
H           -2.95097143826528        2.03899733990759       -0.67646032226570
H           -3.62081674556711        2.02615313300109        0.55813626937464
H           -1.15055598789199       -3.14454924930846        0.82484893498695
H           -1.11233430159789       -3.11912212736109       -0.96184159552703
H           -2.53046719670515       -2.49144214747257       -0.08804221438616
H            1.35028358345586       -2.93640068036765        0.03752341064423
25
 energy: 62.341016074148 xtb: 6.6.1 (8d0f1dd)
C            3.37838197127676        1.10779285860642        0.05685632579203
N            2.38535919249393        0.08420592985509        0.00461986413813
C            2.64619778110351       -1.27443325063317        0.03809128240893
N            1.44638019258807       -1.93636614022338        0.03096176667582
C            0.45063893397608       -1.03055677715720        0.00575166303048
C            0.99119712236321        0.25115788272594        0.00454755659354
C            0.20522821192480        1.42926991662094       -0.00985003064334
O            0.60772694988265        2.58449220260935       -0.13048496724373
N           -1.24645557636717        1.11222860690600        0.14167721639307
C           -2.29571892038199        2.16621700500317        0.16938126703286
C           -1.76133221252454       -0.13901487579838        0.00016999930242
O           -2.95828413570431       -0.34112004875608       -0.07554316176473
N           -0.89084769282026       -1.24385738265066       -0.03351576031660
C           -1.44206972943574       -2.58266035568646       -0.06827992103157
H            3.89013778909633        1.11415295141860        1.02590579144977
H            4.12682567840873        0.94750218491145       -0.72383680622220
H            2.88811809061065        2.06498962002669       -0.09741687808450
H            3.60772688329440       -1.72519139089204        0.06804933480990
H           -1.77533476409637        3.12372833454126        0.21089212376049
H           -2.96925034591490        2.02863944393612       -0.62526496297255
H           -3.74292222043094        2.04033731684170        0.53481204287880
H           -1.14779417490245       -3.14079126367180        0.82422404677754
H           -1.10917996717785       -3.11488894957691       -0.96274734878614
H           -2.52736824957055       -2.48630285921394       -0.08888974470862
H            1.35601128717635       -2.93855630124427        0.03649778180322
25
 energy: 94.919878632056 xtb: 6.6.1 (8d0f1dd)
C            3.39162408674538        1.09723575114725        0.05367043690958
N            2.39932911567273        0.06458020930063        0.01086549011778
C            2.64781591913825       -1.27303237153510        0.03656983420376
N            1.46385742283474       -1.94146390181746        0.03204609458402
C            0.45567534575105       -1.03639029526023        0.01005489952883
C            1.01393479665283        0.24112809442277        0.01121662414684
C            0.24103325251364        1.42349799331249       -0.01708893629293
O            0.64497720449157        2.57701280087131       -0.13842444502401
N           -1.18072727195858        1.12932951196796        0.09580941307978
C           -2.07390870384828        2.17761437567335        0.08830155539196
C           -1.74309595948670       -0.13667091191170       -0.01039397422223
O           -2.93749451196643       -0.32964316521745       -0.07939054288904
N           -0.87653789275772       -1.24247819503890       -0.02885300222860
C           -1.43847374849135       -2.57904397885454       -0.06868513359743
H            3.90514216811115        1.10115419603309        1.01994002207728
H            4.13478788303122        0.93704534077688       -0.72995908485071
H            2.90279856038313        2.05753322768347       -0.09668232395563
H            3.60995593332162       -1.73103913855094        0.06888009665229
H           -1.67608954575879        3.16207308762559        0.18268954124340
H           -3.05095865239917        2.00619084267738       -0.32972137301338
H           -4.19892676813950        2.04821528094747        0.39677212848682
H           -1.14895044312191       -3.13774148645527        0.82375312672061
H           -1.10520913489770       -3.10937854023639       -0.96344382026159
H           -2.52376499980999       -2.47866337374760       -0.09270918484132
H            1.36688328660464       -2.94329808275638        0.03450647580973
25
 energy: 93.962513929184 xtb: 6.6.1 (8d0f1dd)
C            3.40309330111191        1.08848005124069        0.05045703547885
N            2.40690275760189        0.05752705212712        0.01017821861691
C            2.64851120674518       -1.27394352386710        0.03347010081258
N            1.47228988111705       -1.94203870577580        0.03197776930431
C            0.46065005584079       -1.04138735110638        0.01100088074407
C            1.02168792291109        0.24029634888323        0.00918795246704
C            0.25691828089804        1.42089199279866       -0.02267712051178
O            0.66322454926597        2.57539228849851       -0.14789258497903
N           -1.16568013569879        1.13609666015153        0.08007839984379
C           -2.03661114200647        2.17687109918818        0.08940959920636
C           -1.73491205370830       -0.13651183801751       -0.01346200237309
O           -2.93008837292429       -0.32590020613606       -0.07973689763110
N           -0.87137764280713       -1.24124115864959       -0.02896699517866
C           -1.43606261247267       -2.57595207463984       -0.06996232682809
H            3.91885100040845        1.08844386881154        1.01509062084317
H            4.14319413567582        0.92613518612858       -0.73525471629927
H            2.91911587428801        2.05220260099244       -0.09701060919514
H            3.61090920856653       -1.73474504094857        0.07386680200808
H           -1.64197227463292        3.16618764305264        0.15090986287161
H           -3.08155930187665        2.00668766830829       -0.21899637174935
H           -4.31714205211645        2.05842482198991        0.32469078634118
H           -1.14691890643785       -3.13413636118897        0.82255564481895
H           -1.10220035281609       -3.10539384281691       -0.96483903394524
H           -2.52115782061131       -2.47437934465020       -0.09439879257421
H            1.37470854942866       -2.94460990159556        0.03283564200068
25
 energy: 92.444172609747 xtb: 6.6.1 (8d0f1dd)
C            3.41194284240623        1.07905571631153        0.04593311921695
N            2.41126841219644        0.05293228557133        0.00897785979826
C            2.64830181775581       -1.27506347126741        0.03135296086117
N            1.47575181049003       -1.94340523463308        0.03083125302684
C            0.46336008731445       -1.04388197400441        0.00946643384180
C            1.02660256910168        0.23836492320285        0.00641774410698
C            0.26202886182346        1.41678107745073       -0.03096686875331
O            0.67808819547380        2.57029968951565       -0.15963371364020
N           -1.15612201423722        1.13843112810338        0.06368277041762
C           -2.01536329949313        2.17673859898520        0.09876995156892
C           -1.73146174692917       -0.13544932378048       -0.01702335025029
O           -2.92774260238642       -0.32159292495626       -0.07044902640739
N           -0.86853885020828       -1.23950960340981       -0.03105500067880
C           -1.43383718317854       -2.57261345060966       -0.07025328559256
H            3.92982240514321        1.07476330374368        1.00864807308331
H            4.14792422374862        0.91640596867021       -0.74355286225714
H            2.92941368370614        2.04290237780565       -0.09822026282675
H            3.61195395704714       -1.73324329854556        0.06773606368304
H           -1.61512755912328        3.16808748234315        0.12003890356791
H           -3.09399095375581        2.00500925617091       -0.14950174462383
H           -4.41221935412936        2.06523348289766        0.26751921372491
H           -1.14647376427271       -3.12870777030812        0.82401810014037
H           -1.09777806067916       -3.10233896317632       -0.96347312114844
H           -2.51839738127213       -2.46917086887177       -0.09778938094576
H            1.37974523819823       -2.94629651509364        0.03002523788184
25