25
 energy: 0.000000000000 xtb: 6.6.1 (8d0f1dd)
C            3.23720132972391        1.16630909158653        0.08434468864950
N            2.29877796055224        0.07527476373246        0.03981602671198
C            2.58028186251803       -1.21425391179017        0.03006175752192
N            1.43813944744728       -1.93419254010258        0.00098261751768
C            0.39035684826767       -1.05887462812143       -0.00790371763344
C            0.93510047688824        0.21347817468824        0.01709077332874
C            0.09450143016486        1.40504290868848       -0.00410946993748
O            0.49712746915594        2.54126690785742       -0.00342325656480
N           -1.25076628431515        1.06271869620815       -0.03085477937476
C           -2.21907191394203        2.15522079838987       -0.05001256521996
C           -1.81739470187490       -0.20012724136556       -0.04692818139228
O           -2.99983858926755       -0.37846413507442       -0.07008877579474
N           -0.92618577614240       -1.30210203518959       -0.03682761236648
C           -1.46982251276835       -2.64643077634382       -0.06029819901142
H            3.71247229913541        1.21471443890471        1.06488839270555
H            4.00791460421487        1.03430799217987       -0.67357688121503
H            2.69909982127087        2.09770098766290       -0.09130154035862
H            3.56654087521359       -1.63682977417947        0.04233139674524
H           -1.67107945562430        3.09322822573871       -0.02552706696334
H           -2.82428927394145        2.09428605349656       -0.95318074103337
H           -2.87644002486466        2.07745706351925        0.81450059976605
H           -1.17061985538665       -3.19584861009707        0.83242224714061
H           -1.14560246782873       -3.17511580834413       -0.95688266944647
H           -2.55549768731684       -2.55659960601237       -0.07459039105944
H            1.38130842369251       -2.94313824728853       -0.01389874052104
25
 energy: -5.793875555907 xtb: 6.6.1 (8d0f1dd)
C            3.24242554085397        1.19835522524167        0.07202499794228
N            2.30397141274944        0.11767198693309        0.02159478235665
C            2.60267442131437       -1.23449299649816        0.03764059617881
N            1.41995987003855       -1.93869814648609        0.00300627767392
C            0.39761949574843       -1.06317898754337       -0.01065124245855
C            0.91676654046498        0.22498903318839        0.00835708010157
C            0.11338310086647        1.38477541186728       -0.00271024077143
O            0.49281933823758        2.55869700888415        0.00449124273768
N           -1.26958945111327        1.04654456274756       -0.02862411836659
C           -2.21968391543551        2.14591276836620       -0.04369477280531
C           -1.81886478143443       -0.19973573279249       -0.04706575410192
O           -3.01783305319317       -0.38583174067160       -0.07146876620530
N           -0.94097639683238       -1.30369761330693       -0.03792569943558
C           -1.47765129349302       -2.64500116890206       -0.06375755421993
H            3.65643246516305        1.29734069179785        1.07411927187964
H            4.06314360169975        0.99428835700260       -0.61682259334073
H            2.78247238549905        2.16392496178717       -0.16074166484481
H            3.57512824461491       -1.65886091736686        0.04636709366874
H           -1.65887082704686        3.07850823482887       -0.01871440777045
H           -2.82549232897386        2.09509302674789       -0.94705229639860
H           -2.87637355668696        2.07390555454413        0.82255272752298
H           -1.17583439885783       -3.20201415412602        0.82645397340208
H           -1.15192080833584       -3.17736269354345       -0.96090457561910
H           -2.56336284471943       -2.55465781424106       -0.07775123372638
H            1.36336627765384       -2.94377727193998       -0.01189383894815
25
 energy: -4.168901919472 xtb: 6.6.1 (8d0f1dd)
C            3.24769100599062        1.22210082756641        0.05605222183895
N            2.30420062583611        0.13235342366475        0.00128446695571
C            2.60385067543552       -1.23162910291928        0.04680494938434
N            1.41694890369977       -1.93891652285143        0.00498236391888
C            0.39468210132581       -1.06552791046864       -0.01536434940573
C            0.91346597958724        0.22356686430093       -0.00248661223339
C            0.10976962887140        1.38001726011158       -0.00273318877689
O            0.48621105832439        2.55347253726504        0.01303483361606
N           -1.27292568854687        1.04019339495158       -0.02655370500575
C           -2.21922282644189        2.14145698884653       -0.03701007837504
C           -1.82362286972529       -0.20493423084129       -0.04688881308472
O           -3.02311201307575       -0.38874803175190       -0.07079616053109
N           -0.94507467546315       -1.30741741050633       -0.03953509957809
C           -1.48414709827041       -2.64829122259378       -0.06735661627058
H            3.58441208151310        1.37578028131635        1.07965431242341
H            4.11540368763892        0.94940630862691       -0.55026369506507
H            2.87135150041651        2.21591207931792       -0.24045548868903
H            3.57160067336342       -1.67027661981409        0.05006537033995
H           -1.65242478898571        3.07068525823996       -0.01326718935162
H           -2.82669663511865        2.09486728533781       -0.93871160984217
H           -2.87333842090073        2.07055639340199        0.83122165187159
H           -1.18283278095908       -3.20842504589093        0.82115293973977
H           -1.16022820162646       -3.18034813830792       -0.96553345002516
H           -2.57029050295102       -2.55630698825962       -0.08093418631534
H            1.35264769061221       -2.94465783788737       -0.00965394460546
25
 energy: -1.679037623335 xtb: 6.6.1 (8d0f1dd)
C            3.25501717749186        1.24436031963767        0.03694523413711
N            2.30678197575830        0.14356075333961       -0.02442296044888
C            2.60491453084360       -1.23180326069303        0.03905753155093
N            1.41341993894785       -1.94017016840516        0.00740245468346
C            0.39223939502356       -1.06823500487357       -0.01901508835688
C            0.91248520675864        0.22089132406429       -0.01479866160747
C            0.10675460506114        1.37379051402295       -0.00139621068378
O            0.47955747574592        2.54697239655293        0.02305820792485
N           -1.27615778451089        1.03335179777159       -0.02370714594010
C           -2.21843931623831        2.13730110653504       -0.03007687862298
C           -1.82813436680243       -0.21081546242688       -0.04699858122229
O           -3.02805560215590       -0.39277575905407       -0.07159514905773
N           -0.94876554939463       -1.31128441700363       -0.04079829529869
C           -1.49026007341256       -2.65152519155039       -0.07142628220158
H            3.50889390474865        1.45445562522256        1.07646759192517
H            4.16196197637229        0.90789043889066       -0.47994102867918
H            2.96301764366084        2.25770534333158       -0.32568912142024
H            3.56735070089052       -1.68331984088611        0.05609243759602
H           -1.64577879876355        3.06311613131093       -0.00542704812272
H           -2.82637767441139        2.09702420843753       -0.93122242152248
H           -2.87172302849823        2.06696789455329        0.83874493182229
H           -1.18979254665666       -3.21456287266469        0.81560940613576
H           -1.16836391692053       -3.18326183222094       -0.97069080892651
H           -2.57671004578560       -2.55672187969046       -0.08472742596173
H            1.34133750626176       -2.94607351281396       -0.00752208295019
25
 energy: 1.322490034374 xtb: 6.6.1 (8d0f1dd)
C            3.26576416172324        1.26607829058279        0.01802306811651
N            2.31225599919825        0.15218541557516       -0.05462801416037
C            2.60534997248490       -1.23245659521028        0.01277016389918
N            1.41096443616710       -1.94364896538378        0.00984567999955
C            0.39082752457205       -1.07236831399188       -0.02175322880050
C            0.91413617314101        0.21642389119689       -0.02775471058596
C            0.10527149525732        1.36590631314817       -0.00073799980767
O            0.47442103743544        2.53904774364146        0.03141550074722
N           -1.27873153386690        1.02596599016870       -0.02043174836169
C           -2.21672271830761        2.13321081744617       -0.02303641900256
C           -1.83204836375291       -0.21707222528749       -0.04643125974325
O           -3.03238425781904       -0.39767107124122       -0.07059673015518
N           -0.95186861100648       -1.31570721178687       -0.04178641902510
C           -1.49661401428061       -2.65503096980463       -0.07540171458780
H            3.43103509005862        1.53131186659402        1.06719324802928
H            4.20512407573164        0.87270570402298       -0.40133734874719
H            3.05669489622478        2.28912530932501       -0.41461946657320
H            3.56199349175984       -1.69682817671976        0.06097369441148
H           -1.63832472524467        3.05562601427578        0.00318618109178
H           -2.82458937890076        2.09997397999705       -0.92409240043414
H           -2.87009768518397        2.06375585398629        0.84572916272745
H           -1.19677085012708       -3.22125976165370        0.80985957057425
H           -1.17770764532018       -3.18643273905221       -0.97607024813966
H           -2.58341591695512       -2.55689377510042       -0.08766125490806
H            1.33123636250058       -2.94967841506446       -0.00208044234500
25
 energy: 4.972122827689 xtb: 6.6.1 (8d0f1dd)
C            3.27894605313513        1.28927220643827        0.00204202582994
N            2.32097074861908        0.15890572896916       -0.08666118663247
C            2.60775130649572       -1.23332576945676       -0.01369766697096
N            1.41360997498438       -1.94817818673045        0.01034462130436
C            0.39193937003467       -1.07793044409548       -0.02342437231495
C            0.91863179028584        0.21058975413833       -0.03887421012765
C            0.10561664196928        1.35686766781376        0.00075544857491
O            0.47208088005268        2.52977524760315        0.03867828516497
N           -1.28022746176377        1.01874881300528       -0.01618392134106
C           -2.21478281756769        2.12900381657734       -0.01564913015694
C           -1.83469189120573       -0.22319778734104       -0.04515794332835
O           -3.03542111435219       -0.40292348905791       -0.06969180900857
N           -0.95330891799011       -1.32029573311422       -0.04206955108732
C           -1.50246674559406       -2.65829536693927       -0.07907599420175
H            3.35130442554638        1.60384614644925        1.05174726863700
H            4.24060849777830        0.85356514879826       -0.31440485016493
H            3.15436078573821        2.31798247535768       -0.49287369510830
H            3.55721435998584       -1.71121630500104        0.06453324316148
H           -1.63206227057279        3.04879537217772        0.01184195129717
H           -2.82281795377815        2.10193510779637       -0.91653048145965
H           -2.86843790239278        2.06027510192592        0.85295969480580
H           -1.20388043004346       -3.22795829313847        0.80440360316910
H           -1.18595908912125       -3.18898974012912       -0.98103994423243
H           -2.58971403914400       -2.55691867817971       -0.09095780181766
H            1.32551943595353       -2.95466622363682        0.00864507288700
25
 energy: 9.053469668490 xtb: 6.6.1 (8d0f1dd)
C            3.28206468383098        1.29259530192619       -0.00601595388199
N            2.32722043700993        0.15608672798639       -0.11279896236186
C            2.60921216623969       -1.23920813015568       -0.03708020061510
N            1.41514707489799       -1.95475132345295        0.00218364794663
C            0.39186905307278       -1.08508894137045       -0.02429347915204
C            0.92277970312901        0.20251268186601       -0.04557311844382
C            0.10688739151928        1.34711101207518        0.00233409621524
O            0.47209957865650        2.51950023632659        0.04408611839140
N           -1.28143554638029        1.01183164358108       -0.01250860659184
C           -2.21329690195652        2.12464033810415       -0.00754521070140
C           -1.83709012166430       -0.22895653467537       -0.04510511140140
O           -3.03816828823892       -0.40768649865083       -0.07172832505687
N           -0.95540229573169       -1.32537087986008       -0.04281109953207
C           -1.50869271195932       -2.66172328988803       -0.08301224900781
H            3.27211244443671        1.67657352181071        1.02341539853097
H            4.26280651072680        0.83861117213721       -0.21937783943395
H            3.25762235087048        2.33556203979670       -0.55365256276351
H            3.55207656046080       -1.72758784842386        0.06654936642391
H           -1.62742997761934        3.04249964285044        0.01971569659123
H           -2.82406084134260        2.10273502748365       -0.90663913814184
H           -2.86461964535571        2.05572983762727        0.86282987990417
H           -1.21158229333772       -3.23417386183646        0.79913568605363
H           -1.19316746145627       -3.19133147359886       -0.98584846437463
H           -2.59629173350861       -2.55746997151987       -0.09504395725009
H            1.32390395643169       -2.96197712082941        0.01811602866431
25
 energy: 14.006344767324 xtb: 6.6.1 (8d0f1dd)
C            3.27798344315902        1.29251927420114       -0.01101204104888
N            2.32913437282236        0.15247534474705       -0.14369338569210
C            2.61057821331274       -1.24175747245533       -0.06040181579991
N            1.41910325432743       -1.95982052858434       -0.01114498291033
C            0.39160851212655       -1.09314460699491       -0.03024256991189
C            0.92408749827026        0.19426174961558       -0.05756700852254
C            0.10688841784827        1.33688439419559        0.00652989008262
O            0.47145122535376        2.50856238081747        0.05327476949339
N           -1.28333051863970        1.00383043156786       -0.00639930923908
C           -2.21040080242852        2.12052135871681        0.00002699103797
C           -1.83955294488688       -0.23616238794368       -0.04353985133522
O           -3.04089728744121       -0.41456251136305       -0.07255481459735
N           -0.95747869320525       -1.33219201399238       -0.04278776356473
C           -1.51647435404528       -2.66618991195109       -0.08531049490925
H            3.18369361762115        1.73513610254273        0.98578027941114
H            4.26232599830023        0.83016117201002       -0.12104400551193
H            3.37648000612675        2.35126311637336       -0.59748312348689
H            3.54806944735023       -1.73767096774628        0.06745930956060
H           -1.61834960925620        3.03458202116183        0.02670452323015
H           -2.82133621344797        2.10384256088505       -0.89908478469540
H           -2.86076914617279        2.05418098993872        0.87124930654704
H           -1.22232988805173       -3.24177170606264        0.79572723811740
H           -1.20362857558920       -3.19557434972765       -0.98901414302445
H           -2.60416781692933       -2.55672631110382       -0.09700776027414
H            1.33281874378755       -2.96836789394125        0.01383348223820
25
 energy: 19.744125043090 xtb: 6.6.1 (8d0f1dd)
C            3.27387634594043        1.28589273166988       -0.01734957250803
N            2.33172197466561        0.14294068351111       -0.15460767425976
C            2.60877688850303       -1.24912243431655       -0.08467915038468
N            1.41794709447587       -1.96648297340929       -0.02135379807738
C            0.38948263580124       -1.10016987012085       -0.02997216966825
C            0.92615598473717        0.18611818822872       -0.06171549636222
C            0.10845242832253        1.32808571213308        0.01088939199306
O            0.47159655863701        2.49944509041510        0.05866633446676
N           -1.28446561487791        0.99656813941925       -0.00099459470624
C           -2.20765895709596        2.11701369118354        0.00663114757041
C           -1.84156182671783       -0.24255543769716       -0.04166988636448
O           -3.04308747838654       -0.42088332921500       -0.07152959111925
N           -0.96000519988114       -1.33867206239246       -0.04212130891131
C           -1.52377464740194       -2.67038171113692       -0.08652202276021
H            3.09811093281549        1.78561160534206        0.93730993480270
H            4.25969830495628        0.82568293999001       -0.02891598169734
H            3.48034321210554        2.36546357822389       -0.65875745272660
H            3.54121345230137       -1.75174044103098        0.06474636758126
H           -1.61083291382421        3.02804633112215        0.03356123871502
H           -2.81815027791318        2.10632879494371       -0.89279771944046
H           -2.85794996873256        2.05285300089208        0.87805323519241
H           -1.23074792483158       -3.24794045574739        0.79344152025015
H           -1.21350404636559       -3.19960983704089       -0.99105540548680
H           -2.61161144323315       -2.55614003875742       -0.09721517386700
H            1.33924268465596       -2.97501419826992       -0.00105989902143
25
 energy: 28.936309595183 xtb: 6.6.1 (8d0f1dd)
C            3.27116991029375        1.26436383935568       -0.00187871203885
N            2.33649117083925        0.12563113475367       -0.14620011876688
C            2.60581098216488       -1.26508750145704       -0.10140040811537
N            1.41411478637287       -1.97716230228396       -0.03049501537148
C            0.38869280526171       -1.10874442230307       -0.03297813116635
C            0.93033651467391        0.17648491368260       -0.05667204613562
C            0.11454097287133        1.32131232986242        0.01160439711459
O            0.47898416571249        2.49110548243367        0.06518499480804
N           -1.28208211686762        0.99100994802643        0.00529431326348
C           -2.20361689641161        2.11370714933075        0.01400977880345
C           -1.84102193752469       -0.24752441243519       -0.03894631005176
O           -3.04240313964699       -0.42636174448196       -0.07091295241100
N           -0.96103039199217       -1.34500163927713       -0.04219272806433
C           -1.53121426649891       -2.67411756943601       -0.08816450011056
H            3.00511152375602        1.82985185910633        0.89429453908646
H            4.25627541761997        0.80821782694750        0.07787377443693
H            3.60681529494550        2.40114039548155       -0.67791192139362
H            3.53439445412205       -1.76924632783370        0.06485637516062
H           -1.60383356291080        3.02258134271200        0.04199575568334
H           -2.81345915745221        2.10854982820828       -0.88601735597874
H           -2.85461618839200        2.05068100203144        0.88512620791300
H           -1.23896889101985       -3.25346639281491        0.79077674641121
H           -1.22403931968958       -3.20342410753533       -0.99354741899518
H           -2.61924259682621       -2.55485221798028       -0.09648741351603
H            1.34212288867113       -2.98399071732297       -0.01665491073822
25
 energy: 50.301822305183 xtb: 6.6.1 (8d0f1dd)
C            3.23637655480483        1.17967759942436        0.04321576881894
N            2.33882744529926        0.08543358378072       -0.09570382336462
C            2.59371824506196       -1.28537002681344       -0.09197859087085
N            1.40397109089591       -1.99529839211266       -0.03850508461151
C            0.38525294137787       -1.11905995736645       -0.03765398643237
C            0.93464606542724        0.16063383375526       -0.04509539949664
C            0.12092760507974        1.31922728389779        0.01045664651838
O            0.48605487145976        2.48019787148384        0.07059288992838
N           -1.27389933160551        0.98880584607727        0.00971247657014
C           -2.19828958416904        2.11142161097614        0.02193776213470
C           -1.83818887855494       -0.25173949864674       -0.03635527613209
O           -3.03814052626482       -0.42790480056185       -0.07239898206676
N           -0.96222306321217       -1.35073933967451       -0.04139524015501
C           -1.53867657109590       -2.67784383690077       -0.09092524556410
H            2.90947761149022        1.86442035934791        0.82562314957907
H            4.24558386529975        0.79372571417056        0.16201801419494
H            3.79433401426940        2.58098591345152       -0.72864578637067
H            3.52613815552232       -1.78818840563466        0.04885995283810
H           -1.59807472471092        3.01917946157293        0.05179833193026
H           -2.80826036468504        2.11147939723701       -0.87809476483221
H           -2.84937168684378        2.04728877231563        0.89306333776102
H           -1.24776505437168       -3.25897154455792        0.78674018690925
H           -1.23290193905867       -3.20552912224466       -0.99737744145892
H           -2.62637538792378       -2.55370291415971       -0.09793510196832
H            1.33218522302429       -3.00025404647385       -0.02930246004521
25
 energy: 58.850872773137 xtb: 6.6.1 (8d0f1dd)
C            3.19618079466597        1.10749619586097        0.07289541942145
N            2.33235245524397        0.04702358066305       -0.05959157180486
C            2.58270264006142       -1.30041081538167       -0.07461139956866
N            1.39400953394648       -2.01248314711485       -0.04054918391108
C            0.38100508509486       -1.13045081212794       -0.03825660078669
C            0.93443540911296        0.14487828834305       -0.03278470781545
C            0.12426623902293        1.31481953372021        0.01680869233994
O            0.49327098205086        2.46855885134318        0.07918960978190
N           -1.26547564198753        0.98758942794733        0.01240899404567
C           -2.19245907443936        2.10976120183876        0.02891233549243
C           -1.83392963014216       -0.25532647796624       -0.03387395784230
O           -3.03276190659282       -0.42702089002032       -0.07165529367793
N           -0.96348448769812       -1.35621638197555       -0.03849976799856
C           -1.54534638978196       -2.68159583197955       -0.09083366039478
H            2.83097102783238        1.88769453598975        0.72951342809991
H            4.21489846289242        0.78716242764465        0.23349729834237
H            3.97122736421121        2.75882712998834       -0.74100869535095
H            3.52437920829395       -1.78450398825335        0.04262680437667
H           -1.59113392965900        3.01587096640823        0.06061578816182
H           -2.80327439132108        2.11286345477286       -0.87045512157813
H           -2.84307815078435        2.04469140304472        0.90034123877977
H           -1.25557985577537       -3.26516279310454        0.78472773915902
H           -1.24388833395869       -3.20768657493806       -0.99950321938894
H           -2.63108001679144       -2.55230407157649       -0.09091055459608
H            1.32208723919519       -3.01558597162022       -0.03896345173066
25
 energy: 60.982288086187 xtb: 6.6.1 (8d0f1dd)
C            3.16626248639908        1.06728807454717        0.08728127955018
N            2.32545968716190        0.02163881828124       -0.03779459720111
C            2.57760943820056       -1.31657638744428       -0.05797405691935
N            1.38454823315274       -2.02618885012388       -0.03841538710459
C            0.37726954054538       -1.14047997640025       -0.03898167490287
C            0.92915689322566        0.13517327831067       -0.03392459931007
C            0.12516820869172        1.30949651205908        0.02134528832908
O            0.50083205692491        2.45957129718908        0.08749932839756
N           -1.25964976755312        0.98735473477367        0.01220253418713
C           -2.18767710318505        2.10864577305587        0.03612361281158
C           -1.83033356660624       -0.25621668442754       -0.03306592031690
O           -3.02949465049279       -0.42293241091084       -0.06681537033940
N           -0.96498442406377       -1.35989453192143       -0.03599759067744
C           -1.54986686976730       -2.68458386725540       -0.09076679754146
H            2.76829126652502        1.90776855854563        0.63226534165312
H            4.17839552083444        0.78585904901817        0.30849687958085
H            4.10810717370292        2.89565996569333       -0.72175616144216
H            3.52662102269335       -1.78896971342386        0.04609767169048
H           -1.58434952513649        3.01242056664914        0.06840926898587
H           -2.80241979028333        2.11416828789601       -0.86001755183939
H           -2.83654242725668        2.04213540462419        0.90888320889777
H           -1.26445911925148       -3.27033946851477        0.78390678461700
H           -1.25265967344231       -3.21082317266791       -1.00065033449486
H           -2.63241948192286       -2.55188274239332       -0.08714068614168
H            1.31003584890477       -3.02794383441353       -0.04340870734897
25
 energy: 61.839151451617 xtb: 6.6.1 (8d0f1dd)
C            3.14246324516435        1.04769513544105        0.10271263346620
N            2.31921119305032        0.00277195314916       -0.01650388701881
C            2.57464334508926       -1.33270867729653       -0.04172364376789
N            1.37645437199156       -2.03880469297122       -0.03720045032599
C            0.37271196319410       -1.15095658175779       -0.03844515976921
C            0.92378637843797        0.12350567756403       -0.03169267376986
C            0.12615122794306        1.30294602804382        0.02486950535381
O            0.50581140514233        2.45293877619010        0.08375497828463
N           -1.25481539559221        0.98621890783257        0.01341772819269
C           -2.18316709224624        2.10709457894924        0.04218419321429
C           -1.82778175928044       -0.25628121677788       -0.03345057958205
O           -3.02742057658152       -0.41781170737776       -0.06604448867653
N           -0.96907680131221       -1.36480145539479       -0.03360062751000
C           -1.55439866587905       -2.68882959728112       -0.08784619789559
H            2.70723379422957        1.93515051829944        0.54396677782038
H            4.14326126722378        0.79350894594663        0.39287933014242
H            4.17671139060215        3.03695280089986       -0.68442907316809
H            3.53451560798419       -1.79012067251022        0.05526946930951
H           -1.57624696903331        3.00781454288146        0.07503482632069
H           -2.79902840383913        2.11189827075359       -0.85439077110536
H           -2.83024223649801        2.04061748767106        0.91674427850164
H           -1.27295369590875       -3.27704084770857        0.78497054274731
H           -1.26211961326697       -3.21472303178344       -1.00003508918734
H           -2.63599150040637       -2.55824415881654       -0.08335825396783
H            1.29688226480691       -3.03941608045026       -0.04608695307759
25
 energy: 62.844061895915 xtb: 6.6.1 (8d0f1dd)
C            3.11454895521847        1.03597247327300        0.11279654431455
N            2.30979101496663       -0.01316939851010        0.00317520824954
C            2.56871179216083       -1.34705490704761       -0.02625649349629
N            1.36683773343750       -2.05012707398116       -0.03361274240777
C            0.36598017453831       -1.16036143161528       -0.03698256441545
C            0.91620317160202        0.11274767455214       -0.02928295797681
C            0.12525604996686        1.29736567577855        0.02443379056636
O            0.50428386775403        2.45007104796539        0.06810231969176
N           -1.25134440752175        0.98314396192108        0.01549703968105
C           -2.17721405683852        2.10554870684279        0.04563694050093
C           -1.82790794678215       -0.25750436073737       -0.03340326529454
O           -3.02799048549370       -0.41301031400124       -0.06376559170989
N           -0.97550229593466       -1.36916850509728       -0.03632086505204
C           -1.55775013556882       -2.69331543749990       -0.08552673702997
H            2.65115177916698        1.95524048323284        0.46308313621631
H            4.09624109086790        0.80855662505141        0.47350707691409
H            4.22021836103271        3.18684186904369       -0.63326945430306
H            3.53157566037461       -1.79976855993364        0.06644721300822
H           -1.56607605355793        3.00287931972692        0.08191480619844
H           -2.79255017468153        2.10854636041594       -0.85156201376955
H           -2.82343609506156        2.03834468648283        0.91959149466251
H           -1.27824202882655       -3.28267286931765        0.78724236852013
H           -1.27129889592030       -3.21808111901746       -0.99940752420116
H           -2.63887116547430       -2.56527458148251       -0.08438124349790
H            1.28370793706347       -3.04989569591479       -0.04087244822956
25