25
 energy: 103.556401948111 xtb: 6.6.1 (8d0f1dd)
C            3.32261048788214        1.16787890791334        0.08421468844491
N            2.37095823720607        0.08177610937948        0.06266196819632
C            2.71368317081400       -1.19886543097005        0.04997202478259
N            1.60393521672758       -1.96558495679901        0.04408910928435
C            0.45669509994356       -1.11649904764082        0.06751710393298
C            1.01335716427197        0.19581277350059        0.06984375134474
C            0.24952647255150        1.44756274682439        0.04767383454822
O            0.80070930012114        2.55715127899442       -0.06335914665050
N           -1.02914973614507        1.20309618600260        0.27995424756521
C           -2.01216070027730        2.22147336233596        0.19987724755229
C           -4.10004555120916        0.38189035570038       -1.12499225890606
O           -4.14804910720562       -0.73448916841809       -0.95886676440385
N           -0.77552879242293       -1.43069345322495        0.08699764825901
C           -1.27811661977998       -2.77252309673226        0.07039523224914
H            3.81998375410907        1.21030566577437        1.05471582023558
H            4.07606345686719        1.02797501974245       -0.69125622481584
H            2.77684045467318        2.09884210991780       -0.08197252924791
H            3.71772421721628       -1.57282287357501        0.03961087448844
H           -1.67681866154785        3.11965231384439       -0.33632743364168
H           -2.88712688773982        1.77894886007584       -0.29997736762428
H           -2.34647453727681        2.49774921488775        1.20639846640681
H           -0.92224917776216       -3.37240899024167        0.92233384269986
H           -1.01349892674389       -3.29961631793519       -0.85529844340420
H           -2.37049793076757       -2.71235703211035        0.11853586429582
H            1.58531387600507       -2.97135272908375        0.03924001325778
