25
 energy: 114.449248661970 xtb: 6.6.1 (8d0f1dd)
C            3.29905001556063        1.15118614702168        0.12496382426220
N            2.34141489371124        0.07045504729155        0.07115716935516
C            2.69340823986835       -1.21308401451862        0.07378557324921
N            1.59226233274632       -1.99370939219361        0.06628639662953
C            0.43672388407366       -1.16085661430262        0.05838961189878
C            0.97021242905068        0.16088565969039        0.08101569956458
C            0.12413033610433        1.37061655447279        0.03447271205027
O            0.65225731231282        2.48415938340424       -0.06171895249592
N           -1.25868684090247        1.10073068622902        0.09767927726856
C           -2.08437496803912        2.27885797319454        0.17934636186269
C           -3.26920885451909        0.51820309033472       -1.16671347038507
O           -3.86995567608771       -0.40720642179263       -0.89586180801399
N           -0.79736368146181       -1.45206793497541        0.02873856078980
C           -1.29732045157151       -2.77990870126446        0.03300289237539
H            3.79302088232205        1.16785455228878        1.09972044588402
H            4.06096719473765        1.01084477007150       -0.64447685841220
H            2.78198288638895        2.09608889726780       -0.02978997481529
H            3.70114271876681       -1.58245541517559        0.07191000037324
H           -1.81209112046460        3.08409311364623       -0.52035182251572
H           -3.14203361147647        2.05945517693112       -0.01652205846657
H           -1.97158317724935        2.64303228018827        1.19989139540562
H           -0.89276999405924       -3.32264126691000        0.88918057175120
H           -1.03018319437159       -3.30908892727029       -0.88812125565371
H           -2.38433045094097       -2.74361928228776        0.10628753755956
H            1.58182328521171       -2.99929127917954        0.04639411527191
