72
 energy: 0.000000000000 xtb: 6.6.1 (8d0f1dd)
N           -1.47310934822924        2.74401318561852        2.22063942287560
C           -1.55658894218425        2.16490305624665        1.13274284460745
C           -2.74549225258129        2.05621251263064        0.23826250649470
C           -3.31377583855761        0.64333417511334        0.32332515650284
C           -4.30230195924506        0.24487112428158       -0.58026167086503
C           -4.85238808050968       -1.02286499940159       -0.53363593669082
O           -5.81420026757557       -1.48606047972767       -1.36157895357670
C           -6.39655692584623       -0.60827005826649       -2.29568495601309
C           -4.39972542350640       -1.94646120241305        0.44396933240983
O           -4.98748357557592       -3.16146026488900        0.41085995818162
C           -4.66362171172287       -4.10093865802695        1.40909140816864
C           -3.42072545213514       -1.54561399150247        1.33436558640148
C           -2.88302826362110       -0.26315802838497        1.27400162590187
C           -2.19303818453636        2.30467021687947       -1.18742988123374
C           -1.26651549989641        1.17243380322503       -1.65249445018642
C            0.01082525039567        1.09745464658138       -0.89354811789923
N            0.61779399208289       -0.02034948241203       -0.57705527866251
C            2.00145228921113       -0.02376006609561       -0.15611401051620
C            2.92554961797610       -0.53865287672537       -1.27700100652360
C            4.35756883501756       -0.43050761225877       -0.83075552032494
C            5.07346182539911        0.73206415878124       -1.03980975472950
C            6.38628045899965        0.84224449235903       -0.60344828301384
C            7.00047329721665       -0.20824758267940        0.05722314949100
O            8.26703733840855       -0.21011315050632        0.52410948507466
C            9.06912311989339        0.92943609656965        0.31863060963839
C            6.27040022445068       -1.40439766990411        0.28033468609137
O            6.94830004375713       -2.38012947787858        0.92752007684741
C            6.31537376337817       -3.61583233633369        1.15217722400438
C            4.96302840674480       -1.49347485723979       -0.16064431849589
C           -0.05511211878686       -1.29906259857679       -0.62085692079872
C           -3.86758072907722        3.07992629005348        0.58498065642721
C           -4.49286201346546        2.77383518785172        1.94313307512182
C           -3.39165211343248        4.52917708609625        0.54797528556046
H           -4.66030069703099        0.94509076131725       -1.31640581036773
H           -6.85037992114187        0.25803164586058       -1.80468862056629
H           -7.17287509152171       -1.18600121846629       -2.79318183475679
H           -5.66836870040540       -0.26952968819383       -3.04040283452035
H           -4.88416765986127       -3.71589494995018        2.40913564538747
H           -5.29223619720187       -4.96637504833431        1.20969248126828
H           -3.61139846644506       -4.39919876145526        1.35529370415983
H           -3.07077825100221       -2.21868786295666        2.10002682176568
H           -2.14562774333496        0.02067850888151        2.01001363031684
H           -3.02188903413801        2.38238034416975       -1.88813562572432
H           -1.65198546223364        3.25146730843841       -1.20556295755141
H           -1.81103391047759        0.23006526775522       -1.62116316669324
H           -0.99335697743926        1.37490224954061       -2.69443281971844
H           -0.67628070635666        1.65183902374723        0.61785732877701
H            0.63525847086258        1.98466388206871       -0.92314029755375
H            2.11132572081740       -0.65949698961381        0.72532619960637
H            2.30680494458141        0.98978260887088        0.11078973822125
H            2.76694224489122        0.06750735773687       -2.17075272340394
H            2.67954606229959       -1.57455642411728       -1.51167757545099
H            4.62170041431221        1.56295626549351       -1.56123593485311
H            6.92357738865082        1.75715832247601       -0.79119604059515
H            8.65159193263071        1.81001840117181        0.81701562739969
H            9.20136256512460        1.14042868409438       -0.74698998879646
H           10.03428931104811        0.69003246578081        0.76064945022918
H            7.05567240429544       -4.23621211097668        1.65347581279537
H            5.43848051513375       -3.50813590722545        1.79970582482858
H            6.02060097762632       -4.09420535105165        0.21253284608183
H            4.40102799328555       -2.40127288651695       -0.00490198294521
H           -0.22071301762289       -1.61775598610935       -1.65116024301020
H           -1.01972267469312       -1.24102728946113       -0.10935207845464
H            0.55899959333766       -2.04486104898380       -0.12333731565713
H           -4.63991918782192        2.95501120214274       -0.18098089750912
H           -3.76095251366987        2.90314731895452        2.73380846416528
H           -4.87457659255110        1.75695657819473        1.97884621460846
H           -5.31925601899505        3.45579242388173        2.12325583951056
H           -2.60025614255587        4.69225089676674        1.27368930043085
H           -3.03987434616939        4.81897697030947       -0.43870979129779
H           -4.22191779840287        5.18069696155015        0.80616701440619
H           -0.59832439338922        2.77744720721660        2.72959009765665
72
 energy: -5.017588414765 xtb: 6.6.1 (8d0f1dd)
N           -1.49266144677931        2.78403045323623        2.23291079774794
C           -1.56993552508643        2.15857484048243        1.15195755409995
C           -2.75916206114196        2.06324266276695        0.24871005985860
C           -3.32682186535132        0.65129549504094        0.32977827303322
C           -4.31369391607091        0.24774406369278       -0.57270506522620
C           -4.85861628763287       -1.02175137880876       -0.52831819687939
O           -5.82543862760869       -1.48966266564548       -1.35877120874615
C           -6.40555667156596       -0.61092977215522       -2.29123375016867
C           -4.40526212265243       -1.94308637008045        0.44662976645031
O           -4.99543017175975       -3.16486986007964        0.41380508417039
C           -4.66684725990592       -4.09991582326412        1.41221444699451
C           -3.42906174362101       -1.54009093996396        1.33765406235625
C           -2.89564386220830       -0.25604087945981        1.27881660419198
C           -2.21557355047361        2.31033276390578       -1.18262467441144
C           -1.28485757270365        1.19593842282162       -1.68374958905492
C           -0.00629356144437        1.13646926937718       -0.91910124685833
N            0.62495240664032       -0.02353839054706       -0.60176056851073
C            2.00426415607712       -0.01720486687500       -0.20434031975473
C            2.94411395463872       -0.52778834170175       -1.31541697686366
C            4.37373907909957       -0.46064198163999       -0.83233975082260
C            5.09268684312533        0.70119688857716       -1.03080958434070
C            6.40265081148347        0.81763977034901       -0.59120627560681
C            7.02097519672586       -0.22694727079642        0.07242795888679
O            8.29718723987525       -0.22219984228142        0.53758313776389
C            9.08731130555737        0.92152633687936        0.32134706572283
C            6.29366387979939       -1.42036978256507        0.30199568633272
O            6.98561622347920       -2.39135297085523        0.95610949959603
C            6.36438869495270       -3.62936354604767        1.19065783752129
C            4.98546478003197       -1.51705820082010       -0.14284347597168
C           -0.05322748137083       -1.29176935559450       -0.65681064377538
C           -3.88662217677980        3.07763860433916        0.59323580055891
C           -4.50186657521806        2.77128556115085        1.95639813188274
C           -3.41453410724488        4.52898381262668        0.55910113917396
H           -4.66903904400408        0.94553283081746       -1.31279621936058
H           -6.85866330094033        0.25628908208393       -1.80012635024571
H           -7.18237648050294       -1.18842845064146       -2.78941654437756
H           -5.67725288874562       -0.27051315512279       -3.03519874844486
H           -4.88573828321351       -3.71380282845392        2.41285751896859
H           -5.29418743315838       -4.96741696853102        1.21516603261810
H           -3.61369837636544       -4.39569669487482        1.35839145088938
H           -3.07390611642321       -2.21544051726867        2.10006843830901
H           -2.15218775582287        0.02745044325934        2.00771085243358
H           -3.05069871058560        2.39832692884139       -1.87783226966578
H           -1.67170314424834        3.25601640377989       -1.19786188953694
H           -1.82062454806499        0.24847800360518       -1.63485552407458
H           -1.05082128832381        1.39954522491303       -2.73775246645459
H           -0.69610074043935        1.64961645459268        0.64631536208905
H            0.62447507471775        2.01321423829166       -0.97311955939110
H            2.12417230527571       -0.64838763898713        0.67912461138236
H            2.29558794445357        1.00225889977316        0.06060108992936
H            2.77688814479529        0.09328628223654       -2.20234846332167
H            2.67951041604646       -1.55363349257918       -1.56779216276558
H            4.63650067080240        1.52828418565937       -1.55177606077541
H            6.93725694661507        1.73333810681998       -0.78433468063074
H            8.66477939633275        1.80308395101964        0.81488444862078
H            9.21400821253915        1.12841759050784       -0.74638173828961
H           10.05635640408380        0.69269679726012        0.76119813613518
H            7.11200995888238       -4.24150910067079        1.69269791012342
H            5.48905367523301       -3.52414702677769        1.84043951449553
H            6.06903270643720       -4.11547329043078        0.25505059754433
H            4.42946133915839       -2.42654150300451        0.02676296479894
H           -0.23068095833676       -1.60328164786822       -1.69075030853200
H           -1.01548865645036       -1.23362734019732       -0.13985009388102
H            0.56243201151983       -2.04083801817671       -0.16718249698004
H           -4.66505708141045        2.95556094273351       -0.16851249623912
H           -3.75884240011205        2.89970160140201        2.73728657762553
H           -4.87656312476734        1.75133355296664        1.99262383070468
H           -5.33035999844931        3.45028488356953        2.14513953228029
H           -2.61666223182517        4.68677775885243        1.27892633938980
H           -3.06573723149896        4.81832258658260       -0.42900909790560
H           -4.24439775781770        5.18094198487430        0.82291501983338
H           -0.60874684336871        2.78795400515045        2.73192189580984
72
 energy: -3.712384348264 xtb: 6.6.1 (8d0f1dd)
N           -1.52430123920949        2.84468117848460        2.24015047430850
C           -1.58342862627490        2.15605538476596        1.17334520415007
C           -2.77736267171535        2.07134253933953        0.26200645652027
C           -3.33928253591803        0.65815032456938        0.33498200438083
C           -4.32628897438324        0.24940695170112       -0.56391575638688
C           -4.86499343847815       -1.02142330066214       -0.52061225360851
O           -5.84150713811152       -1.49370009545438       -1.35345294376201
C           -6.41869106152561       -0.61113936234976       -2.28022225725360
C           -4.41064081442267       -1.93960763706414        0.44972167162108
O           -5.00690384339322       -3.17019970663584        0.41933593894639
C           -4.67416155561931       -4.09687830216331        1.41979716281611
C           -3.43580506483213       -1.53625220396859        1.34016920899760
C           -2.90770321898425       -0.25109935255883        1.28235752349202
C           -2.24843152101658        2.32582885145815       -1.17587059656844
C           -1.31766573099896        1.22674670644979       -1.71784644885048
C           -0.03422151410270        1.19000594309854       -0.95738810540732
N            0.63014141165726       -0.02116766481694       -0.64897724349990
C            2.00328700929499        0.00056357397671       -0.28180600360154
C            2.96837477639768       -0.50482039791281       -1.37866216911612
C            4.39407484663400       -0.50655835532113       -0.83007139306401
C            5.12193686323817        0.65251789102834       -1.01066543921119
C            6.42856475274753        0.77969351102766       -0.56789187322830
C            7.05208905603006       -0.25702403689725        0.09707645794846
O            8.34270797663077       -0.24233523025298        0.55658068277617
C            9.11505161593494        0.90702764132797        0.32173828922819
C            6.32643165738625       -1.44492558784153        0.33439858479922
O            7.03898177111553       -2.40708955417393        1.00138357997526
C            6.43726155498406       -3.64819629318032        1.25735775965182
C            5.01591351129918       -1.55371704052832       -0.11645539519400
C           -0.05461587443295       -1.27475889767278       -0.72036342791356
C           -3.91171705550992        3.07123260029476        0.60726380673226
C           -4.51422039516299        2.76194977561129        1.97657486005931
C           -3.45018161096111        4.52731579139559        0.57361450154681
H           -4.67936720002628        0.94503630818628       -1.30778064438395
H           -6.86926566012007        0.25687485568477       -1.78646793777225
H           -7.19819432426624       -1.18575261185418       -2.77911450708168
H           -5.69186444102558       -0.26773454531415       -3.02457553219495
H           -4.89096648883038       -3.70721792328458        2.42054306233952
H           -5.30139531788882       -4.96652030547934        1.22808015612994
H           -3.62050231969554       -4.39256934542553        1.36763502374729
H           -3.07334926190893       -2.21447889746815        2.09787527912527
H           -2.15737449521687        0.03293841381653        2.00311120293407
H           -3.09515440424695        2.42908983605587       -1.85938151454777
H           -1.70003840830619        3.26980823295004       -1.18494820121606
H           -1.83932619302035        0.27097150256085       -1.65368607826507
H           -1.13658800368292        1.43688008013014       -2.78613483071700
H           -0.72370789055134        1.63897358184896        0.69576582061339
H            0.60725962736881        2.04947726966852       -1.03896521549856
H            2.14454962788944       -0.62847831730146        0.60248775983543
H            2.27707498416218        1.02700202009297       -0.01809165665029
H            2.80491041847496        0.14661925857277       -2.25320775388394
H            2.67366446310078       -1.51201736803762       -1.67379715462318
H            4.65774612746100        1.47437564227289       -1.52922829206898
H            6.95692370384856        1.69800181056414       -0.76632327432611
H            8.68742865084915        1.79096802902980        0.80821125093641
H            9.23192801790639        1.10659094726092       -0.74953598256030
H           10.09153241040072        0.69564501561710        0.75572095958788
H            7.19669876367727       -4.24701166555668        1.76063562516606
H            5.56673493794079       -3.54527482525157        1.91353273697942
H            6.13921754116428       -4.15010343975703        0.33060278521152
H            4.47395961054628       -2.46884238061338        0.07631678412259
H           -0.24962041075844       -1.57960579342668       -1.75763181439938
H           -1.01209418101880       -1.22385126869416       -0.19247706457129
H            0.56544016619990       -2.02976292812863       -0.24381872272993
H           -4.69796567287959        2.94886065729918       -0.14840312828321
H           -3.75718792457488        2.89264840629204        2.74380511630358
H           -4.87828172368426        1.73753280265581        2.01458009690976
H           -5.34618337764503        3.43498755920197        2.17674138171266
H           -2.64399641051841        4.67960733147714        1.28501331150684
H           -3.10804104331973        4.81643700996712       -0.41713895862814
H           -4.28052949646144        5.17694407494800        0.84598297230864
H           -0.62486852275377        2.80061709643576        2.72290061010658
72
 energy: 5.150411786425 xtb: 6.6.1 (8d0f1dd)
N           -1.55775597792414        2.89796624532341        2.24721963862999
C           -1.59506223958132        2.15833516796024        1.19160008852572
C           -2.79546849472860        2.07911706201058        0.27446250542155
C           -3.34923423173510        0.66336078019403        0.33876776532279
C           -4.33707816698330        0.25027527811692       -0.55626816281020
C           -4.87031804978604       -1.02159374303545       -0.51298255372998
O           -5.85717804657072       -1.49692856659640       -1.34755144325390
C           -6.43211184620405       -0.60965229957254       -2.26705581688103
C           -4.41486551392853       -1.93683244337527        0.45258924311753
O           -5.01794799450860       -3.17545071568689        0.42554522340016
C           -4.68281538063167       -4.09310743905966        1.42895269550944
C           -3.43976580343571       -1.53430955051616        1.34165398228632
C           -2.91659012638920       -0.24834311949868        1.28430248941613
C           -2.28201717204880        2.34409017684352       -1.16944372446144
C           -1.35383571045439        1.25780359178983       -1.74992634193454
C           -0.06444077235470        1.24352841009471       -1.00038164403500
N            0.63296373318453       -0.01693013206799       -0.70087348146221
C            2.00069314299936        0.02127913130107       -0.36209340081379
C            2.99132584082727       -0.47827840546357       -1.44539271319523
C            4.41283748157401       -0.55394316968806       -0.82617841376233
C            5.15180035662065        0.60206041868404       -0.98722526292772
C            6.45525875907295        0.74081354948242       -0.54209950714515
C            7.08435943019062       -0.28873685155367        0.12299953930785
O            8.38922226167609       -0.26373234967634        0.57557585788579
C            9.14366575653059        0.89087870746568        0.32052680522189
C            6.35892917852577       -1.47063986862961        0.36741001082217
O            7.09189544821170       -2.42303035179608        1.04837719694926
C            6.51145508501369       -3.66699310021925        1.32960914775670
C            5.04581011169034       -1.59209811940778       -0.08975652352174
C           -0.05762699771409       -1.25631523594284       -0.78849422335354
C           -3.93669219368169        3.06358820533399        0.62265244173390
C           -4.52631181897328        2.75017269246653        1.99770326791655
C           -3.48727246071320        4.52485958404634        0.58780933856089
H           -4.68872424323296        0.94427682531728       -1.30286985511656
H           -6.87946746370695        0.25883992112382       -1.76946258947309
H           -7.21517688523567       -1.18028539227057       -2.76642714165238
H           -5.70760839721761       -0.26303479815220       -3.01259093075069
H           -4.89767858143080       -3.69892394188188        2.42938333653606
H           -5.31081293780970       -4.96442646970047        1.24342286709825
H           -3.62907621903642       -4.39049080141049        1.37927175780253
H           -3.07041456327858       -2.21500462710711        2.09479579149084
H           -2.16035779406768        0.03665379972918        1.99802734775862
H           -3.14044022275454        2.46274096133072       -1.83994323587042
H           -1.72862645183739        3.28577126190866       -1.17168616636795
H           -1.86093915840396        0.29397151383870       -1.67303286506818
H           -1.22247272354362        1.47474021365269       -2.82997157992879
H           -0.75029046343231        1.62932422661320        0.74722458542716
H            0.58771529883894        2.08579343711137       -1.10275986342234
H            2.16581594292387       -0.60650960379849        0.52212353325248
H            2.25788813678592        1.05422245968275       -0.10046282844990
H            2.83936358900776        0.20698738334596       -2.30650037292690
H            2.66608493673878       -1.46368594243373       -1.79115029056767
H            4.67908188313405        1.41908064623581       -1.50254945228550
H            6.97597906012466        1.66230909815996       -0.74510304340283
H            8.71197787708626        1.77759794076472        0.79994105390044
H            9.24978115377814        1.08226367436843       -0.75449303742306
H           10.12827951911523        0.69787628123386        0.74726894251657
H            7.28358862393995       -4.25127025503004        1.83409183331369
H            5.64711782200675       -3.56565514321623        1.99388917518079
H            6.20996818032163       -4.18709781306708        0.41341493185732
H            4.52166333973538       -2.51462088416743        0.12834688004879
H           -0.26975401115692       -1.55412805581811       -1.82863689038401
H           -1.00994796248605       -1.21475090667829       -0.24893266298772
H            0.56767742937031       -2.01796492337323       -0.32644027782419
H           -4.72996847333197        2.93854966191770       -0.12709155053655
H           -3.75681809195972        2.88477216914572        2.75193374756994
H           -4.87921884185462        1.72129170703542        2.03736578116428
H           -5.36201816965555        3.41631005768837        2.20846741977159
H           -2.67326815113531        4.67367173331598        1.29057549941709
H           -3.15328924215992        4.81396641208628       -0.40592771785389
H           -4.31866167162507        5.17062774591637        0.86866758157404
H           -0.64088086343401        2.81428865932464        2.70827279457431
72
 energy: 18.732968738071 xtb: 6.6.1 (8d0f1dd)
N           -1.58674256971309        2.93820288376733        2.25622651097866
C           -1.60841185226617        2.16442532999304        1.20560347849641
C           -2.81412098481157        2.08658676828205        0.28539103917179
C           -3.35963964125121        0.66819655678343        0.34273162932300
C           -4.34805572074128        0.25126660216181       -0.54919201331132
C           -4.87669097440345       -1.02168827064973       -0.50586975777251
O           -5.87191192526962       -1.49958857242913       -1.34143729004161
C           -6.44588196625334       -0.60836387579186       -2.25459106390917
C           -4.41966529912281       -1.93463158582754        0.45581940308218
O           -5.02803013907007       -3.17961766765425        0.43178168976133
C           -4.69118195739832       -4.08970424224475        1.43812645067913
C           -3.44383875735378       -1.53240941928884        1.34314889554407
C           -2.92501956678515       -0.24545374818101        1.28608933310610
C           -2.31565522738366        2.36216744069099       -1.16378842458204
C           -1.39019427245954        1.28898433303906       -1.78148597109090
C           -0.09361727042487        1.29423148322665       -1.04501283092440
N            0.63432956244065       -0.01108213357039       -0.75123292786966
C            1.99942318221335        0.04181914990445       -0.43974401488568
C            3.01421407315944       -0.45398934678992       -1.50846799413545
C            4.43180359282177       -0.59934155458189       -0.82284590101951
C            5.18034886011898        0.55381746145201       -0.96536838646160
C            6.48087468763259        0.70281377811313       -0.51797208684192
C            7.11630766097096       -0.31971335257913        0.14774218250335
O            8.43314252770374       -0.28447796102728        0.59408849723341
C            9.17182993659839        0.87475304235408        0.31975288577450
C            6.39103669988157       -1.49673777986166        0.39953828470004
O            7.14286716852120       -2.43877550243780        1.09353112772533
C            6.58471376436319       -3.68605936545207        1.40039000781484
C            5.07550544953286       -1.62959052428465       -0.06376452220920
C           -0.06073361538255       -1.23898095798020       -0.85510629163258
C           -3.96197955088411        3.05672280081979        0.63831547854553
C           -4.53800894949949        2.73882745535065        2.01896000158609
C           -3.52392292585607        4.52257689635747        0.60233962349958
H           -4.69894469767030        0.94376899341718       -1.29790437612206
H           -6.89032809634196        0.26031988914662       -1.75335872726998
H           -7.23201561399378       -1.17570722024657       -2.75405536516110
H           -5.72359896273126       -0.25893491342733       -3.00129568578023
H           -4.90429849087004       -3.69118337780871        2.43802815621052
H           -5.31992540771746       -4.96234580319499        1.25809239776663
H           -3.63741899035787       -4.38851286930730        1.39045037084150
H           -3.06840234318868       -2.21503962425280        2.09239938239177
H           -2.16398277122946        0.04034284480714        1.99390177144773
H           -3.18439740940802        2.49475430373415       -1.82195162785227
H           -1.75808356093382        3.30187130941034       -1.15968523209477
H           -1.88392232906162        0.31795341696452       -1.69163150570651
H           -1.30337601132670        1.51137980567221       -2.87099224348270
H           -0.77425754016562        1.62248623358852        0.79002341720472
H            0.56686194917809        2.12288112852916       -1.16478853952716
H            2.18403187508619       -0.58309583519877        0.44458979079454
H            2.24108692879169        1.08096862527108       -0.18131938174196
H            2.87478826638217        0.26171249547565       -2.35715552643348
H            2.66229191635127       -1.41718339560145       -1.90122488968536
H            4.70114291730323        1.36675853977829       -1.47787186108519
H            6.99461619869031        1.62707424722815       -0.72548554153159
H            8.73629965779331        1.76404263865593        0.79232906559232
H            9.26778688804027        1.05779570418659       -0.75868408980344
H           10.16370323998724        0.69884487571230        0.73970762346998
H            7.37039066037979       -4.25438305325727        1.90584954402625
H            5.72683865476302       -3.58669144383979        2.07310164670838
H            6.28058873016685       -4.22450080687304        0.49500218169321
H            4.56814962062735       -2.55846175045608        0.17806828892962
H           -0.28841221951072       -1.52738254504986       -1.89840341605775
H           -1.00815677004801       -1.20568613243084       -0.30488117848025
H            0.56978516945643       -2.00663571172274       -0.40813841611747
H           -4.76175231572108        2.92866838751220       -0.10544151245899
H           -3.75758704067028        2.87722566171974        2.76168847941409
H           -4.88027307740277        1.70581655720024        2.06009837414804
H           -5.37738164411546        3.39821098810768        2.23978160958138
H           -2.70245557397075        4.66979134191523        1.29660554081422
H           -3.19857215629186        4.81231027304189       -0.39430526246662
H           -4.35643731262665        5.16433883497408        0.89153547514619
H           -0.65557754037735        2.83053303702264        2.69611075229863
72
 energy: 34.853176184935 xtb: 6.6.1 (8d0f1dd)
N           -1.61125441885956        2.96634931505800        2.26559368281422
C           -1.62232140888778        2.17360465146792        1.21447095992146
C           -2.83318539455921        2.09374138300188        0.29433550694089
C           -3.37029735223094        0.67252496065206        0.34641005690134
C           -4.35939151598922        0.25237288200946       -0.54278869848606
C           -4.88415556050439       -1.02156998729757       -0.49917145627877
O           -5.88582213080831       -1.50177103417533       -1.33529939346640
C           -6.45993364706633       -0.60758680545182       -2.24313306024472
C           -4.42514166442045       -1.93270164740027        0.45945651565904
O           -5.03720134851651       -3.18276888591551        0.43795375480977
C           -4.69905057728950       -4.08667912384141        1.44698820756675
C           -3.44828219430598       -1.53040886619718        1.34483011978981
C           -2.93322278224518       -0.24248515195485        1.28777159387474
C           -2.34905478868206        2.38045835386996       -1.15936724712804
C           -1.42703595876099        1.31954578330411       -1.81099796431275
C           -0.12263919781444        1.34290694023716       -1.09013165943338
N            0.63430948673312       -0.00396614689567       -0.79881232028827
C            1.99898144429378        0.06279354336807       -0.51370949723001
C            3.03530919260804       -0.43189020569890       -1.56782928355892
C            4.45022186731550       -0.64256036453619       -0.81911483170711