72
 energy: 0.000000000000 xtb: 6.6.1 (8d0f1dd)
N           -1.47310934822924        2.74401318561852        2.22063942287560
C           -1.55658894218425        2.16490305624665        1.13274284460745
C           -2.74549225258129        2.05621251263064        0.23826250649470
C           -3.31377583855761        0.64333417511334        0.32332515650284
C           -4.30230195924506        0.24487112428158       -0.58026167086503
C           -4.85238808050968       -1.02286499940159       -0.53363593669082
O           -5.81420026757557       -1.48606047972767       -1.36157895357670
C           -6.39655692584623       -0.60827005826649       -2.29568495601309
C           -4.39972542350640       -1.94646120241305        0.44396933240983
O           -4.98748357557592       -3.16146026488900        0.41085995818162
C           -4.66362171172287       -4.10093865802695        1.40909140816864
C           -3.42072545213514       -1.54561399150247        1.33436558640148
C           -2.88302826362110       -0.26315802838497        1.27400162590187
C           -2.19303818453636        2.30467021687947       -1.18742988123374
C           -1.26651549989641        1.17243380322503       -1.65249445018642
C            0.01082525039567        1.09745464658138       -0.89354811789923
N            0.61779399208289       -0.02034948241203       -0.57705527866251
C            2.00145228921113       -0.02376006609561       -0.15611401051620
C            2.92554961797610       -0.53865287672537       -1.27700100652360
C            4.35756883501756       -0.43050761225877       -0.83075552032494
C            5.07346182539911        0.73206415878124       -1.03980975472950
C            6.38628045899965        0.84224449235903       -0.60344828301384
C            7.00047329721665       -0.20824758267940        0.05722314949100
O            8.26703733840855       -0.21011315050632        0.52410948507466
C            9.06912311989339        0.92943609656965        0.31863060963839
C            6.27040022445068       -1.40439766990411        0.28033468609137
O            6.94830004375713       -2.38012947787858        0.92752007684741
C            6.31537376337817       -3.61583233633369        1.15217722400438
C            4.96302840674480       -1.49347485723979       -0.16064431849589
C           -0.05511211878686       -1.29906259857679       -0.62085692079872
C           -3.86758072907722        3.07992629005348        0.58498065642721
C           -4.49286201346546        2.77383518785172        1.94313307512182
C           -3.39165211343248        4.52917708609625        0.54797528556046
H           -4.66030069703099        0.94509076131725       -1.31640581036773
H           -6.85037992114187        0.25803164586058       -1.80468862056629
H           -7.17287509152171       -1.18600121846629       -2.79318183475679
H           -5.66836870040540       -0.26952968819383       -3.04040283452035
H           -4.88416765986127       -3.71589494995018        2.40913564538747
H           -5.29223619720187       -4.96637504833431        1.20969248126828
H           -3.61139846644506       -4.39919876145526        1.35529370415983
H           -3.07077825100221       -2.21868786295666        2.10002682176568
H           -2.14562774333496        0.02067850888151        2.01001363031684
H           -3.02188903413801        2.38238034416975       -1.88813562572432
H           -1.65198546223364        3.25146730843841       -1.20556295755141
H           -1.81103391047759        0.23006526775522       -1.62116316669324
H           -0.99335697743926        1.37490224954061       -2.69443281971844
H           -0.67628070635666        1.65183902374723        0.61785732877701
H            0.63525847086258        1.98466388206871       -0.92314029755375
H            2.11132572081740       -0.65949698961381        0.72532619960637
H            2.30680494458141        0.98978260887088        0.11078973822125
H            2.76694224489122        0.06750735773687       -2.17075272340394
H            2.67954606229959       -1.57455642411728       -1.51167757545099
H            4.62170041431221        1.56295626549351       -1.56123593485311
H            6.92357738865082        1.75715832247601       -0.79119604059515
H            8.65159193263071        1.81001840117181        0.81701562739969
H            9.20136256512460        1.14042868409438       -0.74698998879646
H           10.03428931104811        0.69003246578081        0.76064945022918
H            7.05567240429544       -4.23621211097668        1.65347581279537
H            5.43848051513375       -3.50813590722545        1.79970582482858
H            6.02060097762632       -4.09420535105165        0.21253284608183
H            4.40102799328555       -2.40127288651695       -0.00490198294521
H           -0.22071301762289       -1.61775598610935       -1.65116024301020
H           -1.01972267469312       -1.24102728946113       -0.10935207845464
H            0.55899959333766       -2.04486104898380       -0.12333731565713
H           -4.63991918782192        2.95501120214274       -0.18098089750912
H           -3.76095251366987        2.90314731895452        2.73380846416528
H           -4.87457659255110        1.75695657819473        1.97884621460846
H           -5.31925601899505        3.45579242388173        2.12325583951056
H           -2.60025614255587        4.69225089676674        1.27368930043085
H           -3.03987434616939        4.81897697030947       -0.43870979129779
H           -4.22191779840287        5.18069696155015        0.80616701440619
H           -0.59832439338922        2.77744720721660        2.72959009765665
72
 energy: -1.932254660687 xtb: 6.6.1 (8d0f1dd)
N           -1.49785625586925        2.78841771558309        2.25035714790018
C           -1.55881316704692        2.16017051348598        1.17018790918434
C           -2.73937566293446        2.05957682424926        0.25703599806752
C           -3.30776332856780        0.64811193885183        0.33807950444199
C           -4.29214290279465        0.24720838318180       -0.56798032889252
C           -4.85245197590376       -1.01364848229783       -0.51753754839837
O           -5.82926821753772       -1.46586723542637       -1.34671998624975
C           -6.42388420247472       -0.62013924565040       -2.31782073870750
C           -4.39966376255954       -1.93959124657805        0.45935896901972
O           -4.98925820863232       -3.16212260033013        0.42937251663396
C           -4.66187780517815       -4.09802035024565        1.42887942649401
C           -3.42456131931376       -1.53866373159229        1.35427460492621
C           -2.88652811422464       -0.25670246170762        1.29443154884982
C           -2.18373750169407        2.30543824762413       -1.16930423949036
C           -1.26372422529442        1.18182901448471       -1.66856938164786
C            0.01386833044373        1.11648173346722       -0.90547905268942
N            0.63692445760294       -0.04349425731699       -0.58028385447954
C            2.01172804731154       -0.03798763037592       -0.17050506652717
C            2.94304570162993       -0.54464613363866       -1.28953027219929
C            4.36980084254005       -0.43695214950275       -0.84589495793099
C            5.08488540239806        0.72834762084806       -1.04784870734360
C            6.39468033373839        0.84024604199062       -0.60567490526572
C            7.00715639949986       -0.21060487447817        0.05538632046856
O            8.28018118694432       -0.21325333916487        0.52704020560368
C            9.07728504358299        0.92732578835315        0.32284294722111
C            6.27856733057677       -1.40525102742757        0.27605384680950
O            6.95955240042950       -2.38403914407327        0.92707927220385
C            6.32478934574383       -3.61768840590080        1.15072972575088
C            4.97459246832325       -1.49763618677037       -0.17012053435427
C           -0.04501232305847       -1.30937017765782       -0.63589831745716
C           -3.87037672832998        3.07493310766880        0.58860806223068
C           -4.50283011784096        2.77324217222303        1.94520472421253
C           -3.39919784994002        4.52671473388366        0.55357946215416
H           -4.64155017993349        0.94259776116489       -1.31242614719637
H           -7.06148950366686        0.27289612435630       -2.03055647753826
H           -7.13288609056786       -1.25834037077129       -2.83781514654982
H           -5.68836673964337       -0.22418006854292       -3.01167980971026
H           -4.88301896317945       -3.71368897038431        2.42978094057539
H           -5.28850291790206       -4.96598619247046        1.23081661842134
H           -3.60880051845990       -4.39515598853805        1.37793969808680
H           -3.07657866756605       -2.21109603636099        2.12351633302249
H           -2.14919992534039        0.02794719297414        2.02928065134964
H           -3.01348946856620        2.40428352281168       -1.86905593109260
H           -1.63040607169682        3.24594233790129       -1.17787185337644
H           -1.80560919839329        0.23755791873433       -1.62113461256906
H           -1.02568829562228        1.38508635373114       -2.72079702870601
H           -0.67832173540792        1.64623118036309        0.67980343363236
H            0.64861057759731        1.99006451582627       -0.95410103368358
H            2.12383798095012       -0.66923175990991        0.71486391046282
H            2.30691618342606        0.97983888633941        0.09642002998382
H            2.77805774044676        0.06386788692520       -2.18028121870784
H            2.69186300866980       -1.57932137977975       -1.52424822177880
H            4.63143982979160        1.55934513416426       -1.56731591279899
H            6.93221265054856        1.75627477612375       -0.79109725522903
H            8.65749003536767        1.80778553289444        0.82052731922153
H            9.21097013172447        1.14034791231314       -0.74275640640253
H           10.04215947968730        0.68875229276986        0.76656506655005
H            7.06434341690110       -4.23741966806298        1.65485460053277
H            5.44566817307334       -3.50963055744383        1.79533688931640
H            6.03124226382596       -4.09788057183496        0.21123758122956
H            4.41115924200694       -2.40482636099559       -0.01397910198134
H           -0.21688595784065       -1.62329776211816       -1.66987085324696
H           -1.00980018951501       -1.24691207136511       -0.12406004620338
H            0.56604251100953       -2.05859636889689       -0.14090707839456
H           -4.64011430884946        2.94976591886643       -0.18124249261348
H           -3.77119901909875        2.90551187612148        2.73592366554504
H           -4.87901372449063        1.75378507423881        1.98145378354482
H           -5.33363265195245        3.45289799468705        2.12003377968011
H           -2.61114706461551        4.68944223296149        1.28296981446873
H           -3.03878915615929        4.81296117593452       -0.43139328992375
H           -4.23321877872709        5.17838777930305        0.80408425591589
H           -0.62113892252030        2.80091936228267        2.76033377808429
72
 energy: 7.795998079585 xtb: 6.6.1 (8d0f1dd)
N           -1.52920972401167        2.83796878028543        2.27438432520088
C           -1.55545339694601        2.16290908885734        1.20847044408327
C           -2.73011950877733        2.06200340614238        0.27809694149627
C           -3.29700773430918        0.65102937063852        0.35277183814055
C           -4.27895188654070        0.24978348950706       -0.55495740874623
C           -4.85795348922242       -1.00013498664147       -0.50046817474583
O           -5.86918448620032       -1.42085343821839       -1.32325552544029
C           -6.46367645137752       -0.63106099127294       -2.35363507735457
C           -4.40444384991358       -1.93022846610343        0.47569822693874
O           -4.99327871295925       -3.16195765786360        0.45333191244737
C           -4.65983932642551       -4.09268973123246        1.45458686576430
C           -3.43128253917087       -1.53120208932633        1.37606768402681
C           -2.89002794647102       -0.25140863853238        1.31808152834150
C           -2.17050982028148        2.31179720901003       -1.14728028557468
C           -1.26236150713851        1.18756614896820       -1.67273464963788
C            0.02086743429410        1.12886787290099       -0.92244764708041
N            0.65302582849499       -0.06118639354624       -0.59145067635513
C            2.02022481344729       -0.04834055642257       -0.18952323522416
C            2.96191629873392       -0.55132296679939       -1.30474987340004
C            4.38394032031081       -0.44372050037227       -0.85993869313825
C            5.09942825200029        0.72266336377285       -1.05697945277811
C            6.40708710710153        0.83697016132843       -0.60918358241270
C            7.01642477012610       -0.21376592087744        0.05236089286120
O            8.29450001794481       -0.21654106521281        0.52955982199969
C            9.08714759395729        0.92464052647729        0.32814514995357
C            6.29010191305746       -1.40664305173521        0.26981566814463
O            6.97315868776023       -2.38816863930688        0.92532731055372
C            6.33691674504817       -3.61959980543831        1.14878028578993
C            4.98869269837788       -1.50245812748756       -0.18180926945498
C           -0.03532542455953       -1.31609073876131       -0.65842328182046
C           -3.87019392267384        3.06889072707836        0.59519055441864
C           -4.51485665801275        2.77103812018476        1.94802088670303
C           -3.40786029455127        4.52454418779246        0.56003592754250
H           -4.62295271426534        0.94056501199582       -1.30642617903321
H           -7.30811650330054        0.26704533130692       -2.29390104821239
H           -7.07383882931762       -1.36143517230740       -2.90331706993104
H           -5.70567662005470       -0.16342621347258       -2.97213169555825
H           -4.88215958410489       -3.71018936272420        2.45668401030260
H           -5.28321872501058       -4.96442497350323        1.25883019461123
H           -3.60571619864392       -4.38869138960114        1.40696554497754
H           -3.08713627560528       -2.20130245627068        2.15134050790768
H           -2.15630710447789        0.03544619532770        2.05598563374297
H           -3.00252305324946        2.43635882994449       -1.84308481798739
H           -1.60132191478138        3.24368914904711       -1.14218732077358
H           -1.80079025818183        0.24135490986852       -1.61729936520540
H           -1.06140770966962        1.39621830049983       -2.73462124225314
H           -0.67921320454758        1.63537861734764        0.76044875416961
H            0.66735148858610        1.98733411575730       -0.98205794397284
H            2.14002384147558       -0.67870002906483        0.69889820718118
H            2.31024856449172        0.97107043514716        0.07957445010962
H            2.79337303481948        0.05891751882602       -2.19363690619693
H            2.70764208877450       -1.58535415891019       -1.54180431491629
H            4.64439024611144        1.55338104260392       -1.57556819500357
H            6.94379513524389        1.75478304622196       -0.79082027698915
H            8.66561415834097        1.80511550430469        0.82522932235546
H            9.22410079828446        1.14033592263373       -0.73706431788709
H           10.05173054590795        0.68735912463867        0.77411187564765
H            7.07536109131927       -4.23831898673254        1.65666582316465
H            5.45533373293983       -3.51148679331089        1.79018579484405
H            6.04585074848983       -4.10301807688513        0.20976402490590
H            4.42410383994707       -2.40930133822681       -0.02633697520794
H           -0.21250540984579       -1.62935365271511       -1.69430425232842
H           -0.99944365086028       -1.25544486493289       -0.14475214819116
H            0.57337077269565       -2.07111473563591       -0.16654624046969
H           -4.63516884762094        2.93985770574989       -0.17999954525011
H           -3.78702372895234        2.90955039111093        2.74090541678450
H           -4.88598736952822        1.74940487177687        1.98556912292918
H           -5.35051830474899        3.44768696275913        2.11388769200675
H           -2.62624487436374        4.68853108809174        1.29559865072169
H           -3.03757566925458        4.80683448356119       -0.42263503606576
H           -4.24721301579774        5.17406178033024        0.80033691914093
H           -0.65022752547683        2.82727494972267        2.78811004714756
72
 energy: 20.540892570137 xtb: 6.6.1 (8d0f1dd)
N           -1.55913499695805        2.87432980407123        2.29785842140323
C           -1.55488494760968        2.17207899169782        1.24563370679847
C           -2.72154018107009        2.06324286397024        0.29867765707308
C           -3.28825016079089        0.65230628537852        0.36561320781395
C           -4.27006024961069        0.25246470136497       -0.54438795836056
C           -4.87735456069592       -0.98644697856261       -0.48823783359221
O           -5.92666703622081       -1.37377849298928       -1.30223915272072
C           -6.51057519873718       -0.64347574933320       -2.40146974519694
C           -4.41907494300908       -1.91994518142224        0.48914337600073
O           -5.00049524489134       -3.15970099532224        0.47886858329510
C           -4.65846041108762       -4.08466499671964        1.48308635798039
C           -3.44397473119615       -1.52329978853258        1.39353553151915
C           -2.89566983557059       -0.24701034003873        1.33996391713296
C           -2.15543426577669        2.31984499770383       -1.12361927822914
C           -1.26202056435866        1.19240668574225       -1.67254093648229
C            0.03083894626526        1.13094019593102       -0.94506891091605
N            0.66427877948748       -0.07131764723823       -0.60915131112674
C            2.02949935660594       -0.05716015177946       -0.20918562601415
C            2.97943123276386       -0.55811785516231       -1.32197175612030
C            4.39940441987643       -0.45018140893063       -0.87278012167701
C            5.11526927954574        0.71699002752302       -1.06649516558636
C            6.42115066925457        0.83388486257383       -0.61349464004001
C            7.02837668370275       -0.21686010000665        0.04932671501161
O            8.30752527691460       -0.21892485020644        0.53152176172502
C            9.09823764778412        0.92263054121803        0.33402678370083
C            6.30366980007347       -1.40951133887516        0.26357712836852
O            6.98679502326865       -2.39123436141477        0.92288494209730
C            6.35061785729182       -3.62149311721953        1.14745976084931
C            5.00399342591842       -1.50811107037317       -0.19333380172978
C           -0.02535125894778       -1.32258470052309       -0.68334462957805
C           -3.87044809420922        3.06333319276748        0.60300730089003
C           -4.52780355897928        2.76813754664950        1.95081512629697
C           -3.41696733534674        4.52205214425203        0.56615435011314
H           -4.60392416866060        0.94137542081144       -1.30210060522188
H           -7.50378900215493        0.22847628452600       -2.52103918242232
H           -7.01019295429982       -1.44979015574172       -2.97339216802370
H           -5.73147024256362       -0.09778803485951       -2.93266748005163
H           -4.88190663304271       -3.70419610928471        2.48614893326609
H           -5.27699722966614       -4.96132911549568        1.29097562703516
H           -3.60303429982884       -4.37840303152123        1.43822672115427
H           -3.10460158670465       -2.19017584319907        2.17560235487925
H           -2.16775832067989        0.04164425924178        2.08440448931823
H           -2.98768157456034        2.47035874723670       -1.81505113480758
H           -1.56977964025997        3.24157232635966       -1.10424228845167
H           -1.79881035092482        0.24610719995572       -1.61184203471517
H           -1.09249882165487        1.40664639977411       -2.74141930862118
H           -0.67923452453152        1.62664901505618        0.84280390499369
H            0.68478400832136        1.98166320577104       -1.00630309403247
H            2.15572570187475       -0.68801777082544        0.68039262610812
H            2.31739258766672        0.96228779422149        0.06108755523159
H            2.81177963483650        0.05296934150246       -2.21047557871079
H            2.72560217481168       -1.59209240202876       -1.56115600441769
H            4.65957454264028        1.54718012824546       -1.58550256285289
H            6.95642742032719        1.75322779634311       -0.79153810502626
H            8.67488707976486        1.80281968456259        0.83056944175511
H            9.23915301394982        1.14064390254585       -0.73050824416004
H           10.06217600273887        0.68655699119363        0.78273222370937
H            7.08788683299814       -4.23840025762820        1.65976065343496
H            5.46659722395361       -3.51285564481773        1.78554995933000
H            6.06290610733946       -4.10861250017826        0.20912554164368
H            4.43932702823041       -2.41518173098408       -0.03944130101049
H           -0.20577883468885       -1.63421957917768       -1.72019403188994
H           -0.98873024918445       -1.26546829252472       -0.16766331766392
H            0.58190483173663       -2.08348789856853       -0.19563865315632
H           -4.62811436693248        2.92722850124036       -0.17870694654608
H           -3.80716416471495        2.91474068428779        2.74853923463463
H           -4.89416086995084        1.74480274199060        1.98961335509814
H           -5.36858515205158        3.44127497318303        2.10519471817314
H           -2.64391209083817        4.69070489065557        1.30931752660830
H           -3.03709970157777        4.80061877840047       -0.41386128513421
H           -4.26254121020743        5.16783217172805        0.79449662349335
H           -0.68138022831915        2.86110518388251        2.81685460881020
72
 energy: 32.336846993554 xtb: 6.6.1 (8d0f1dd)
N           -1.58427220698691        2.89971523528376        2.31692881137569
C           -1.55863352593201        2.18114424729631        1.27840390716041
C           -2.71524447733863        2.06175785118376        0.31595347963012
C           -3.28446870288753        0.65120652747933        0.37534832704427
C           -4.26683330687041        0.25264170333147       -0.53695251459968
C           -4.90257181746080       -0.97653682482812       -0.48114260494853
O           -5.98549091978506       -1.33773819136425       -1.28285648600497
C           -6.54356007171791       -0.65835380192304       -2.44639412744404
C           -4.44091094110627       -1.91047410873919        0.50043524034974
O           -5.01027900525439       -3.15655263995539        0.50389447997115
C           -4.65844197165293       -4.07558090341131        1.51151019918305
C           -3.46230050687377       -1.51562961645393        1.40650179657558
C           -2.90461535783631       -0.24406570450341        1.35816681900177
C           -2.13976218980207        2.32790859572523       -1.10096605869251
C           -1.26236906748990        1.19586302753852       -1.66957841384429
C            0.04316239315725        1.12485567648819       -0.97063236722855
N            0.67228414469141       -0.07595326569886       -0.62914025185388
C            2.03937130156070       -0.06419008591506       -0.22843555960882
C            2.99488608472135       -0.56460078013968       -1.33907655409651
C            4.41454433078952       -0.45584759558968       -0.88410401710418
C            5.13054336581023        0.71189506874936       -1.07551263759255
C            6.43492019447566        0.83106640909830       -0.61808051558176
C            7.04127124329828       -0.21938102256540        0.04649239210665
O            8.31858040708728       -0.22030628377915        0.53296675940432
C            9.10941441053619        0.92162882976269        0.33992722403784
C            6.31735044267081       -1.41295721965170        0.25782018391713
O            6.99953547759680       -2.39298174035781        0.91992624238014
C            6.36458880115407       -3.62312825286673        1.14666539568742
C            5.01890818718006       -1.51352256159738       -0.20378787794458
C           -0.01559254720557       -1.32874168423651       -0.70818619367041
C           -3.87113469151390        3.05804735556942        0.61048320100713
C           -4.54057208592268        2.76496743723538        1.95289697517193
C           -3.42619580048235        4.51925281170838        0.57150793469880
H           -4.58616939136005        0.94267065943504       -1.30029714899617
H           -7.64527548979051        0.17956621818166       -2.71505726135542
H           -6.94465128556992       -1.49919812054226       -3.02283817063537
H           -5.77042144204017       -0.04330119778947       -2.89986260135116
H           -4.88274312587699       -3.69607894002260        2.51485979847546
H           -5.27119719643141       -4.95747529141179        1.32333223313611
H           -3.60135544729624       -4.36491280683391        1.46775363010148
H           -3.12729636128766       -2.18015927909965        2.19342005351895
H           -2.18266587980431        0.04513218100865        2.10964801135307
H           -2.97012675278265        2.50328209597627       -1.78857833430078
H           -1.53866652925178        3.23919917312154       -1.06700100702553
H           -1.79974911916377        0.25066785323367       -1.60518955133743
H           -1.11790201629937        1.41590552771402       -2.74212190984392
H           -0.67912683478712        1.62110504989573        0.91805230406757
H            0.69841482386393        1.97503578340277       -1.02497173969390
H            2.16746346123103       -0.69628850372314        0.66045132953786
H            2.32664250081979        0.95467839045549        0.04259843924628
H            2.83103310470737        0.04681935519869       -2.22796945576790
H            2.74382719761746       -1.59882544491606       -1.58009709374815
H            4.67517300832535        1.54147942084591       -1.59584480319081
H            6.96882433071424        1.75159891104788       -0.79308430804974
H            8.68414771793664        1.80120412623354        0.83604480368848
H            9.25440857357558        1.14139260224800       -0.72377018517702
H           10.07223858307119        0.68616400873321        0.79167928593585
H            7.10088150875099       -4.23749607265225        1.66356010152139
H            5.47831124070984       -3.51367896730589        1.78155772209850
H            6.08062421291837       -4.11409262407381        0.20916749050264
H            4.45521429031902       -2.42146611990207       -0.05208351500647
H           -0.19778052045131       -1.63699247900494       -1.74572126814897
H           -0.97823204852417       -1.27579990352070       -0.19046124457764
H            0.59173040925982       -2.09351097537575       -0.22523824636596
H           -4.62103095122910        2.91437850943623       -0.17725607292629
H           -3.82923641018458        2.92012062394834        2.75723455708260
H           -4.90244155494114        1.74021997877129        1.99310353613195
H           -5.38645850520585        3.43433926989482        2.09511225799455
H           -2.66259375538535        4.69508186388450        1.32257507382423
H           -3.03719445079368        4.79481323532192       -0.40555964744636
H           -4.27809335124333        5.16077443467274        0.78745036833304
H           -0.71273933785304        2.89753073271341        2.84690591236782
72
 energy: 40.627889464215 xtb: 6.6.1 (8d0f1dd)
N           -1.59945165543057        2.91650343662852        2.32572861763680
C           -1.56492716882747        2.18371900045993        1.30037745078808
C           -2.71236973031140        2.05877022561488        0.32675319208383
C           -3.28651843576506        0.64961353755532        0.38102153085128
C           -4.26983289113277        0.25232693458351       -0.53228397744151
C           -4.92233871121569       -0.97036493378697       -0.47845097662327
O           -6.02179574031205       -1.31747935174573       -1.27203543346719
C           -6.55577979622933       -0.66871202357453       -2.46916724058714
C           -4.46101967144595       -1.90377887691273        0.50736212789572
O           -5.02038584266917       -3.15287376489880        0.52141328722195
C           -4.66069440733473       -4.06728547843398        1.53192490282023
C           -3.48025389847396       -1.50986320272901        1.41388687405121
C           -2.91475027074731       -0.24252567938001        1.36941860692925
C           -2.12739633969323        2.33261763814607       -1.08452340527237
C           -1.26263711536219        1.19730182893159       -1.66671898596937
C            0.05458595445401        1.11528406245135       -0.99322760154603
N            0.67689967533759       -0.07677267581502       -0.64431315691526
C            2.04701295375053       -0.06867593220740       -0.24287607338475
C            3.00520426961050       -0.56926808124191       -1.35151591531879
C            4.42526624608103       -0.45973357536861       -0.89202236357750