25
 energy: 0.000000000000 xtb: 6.6.1 (8d0f1dd)
C            3.23720163006194        1.16630919979326        0.08434469647475
N            2.29877817382611        0.07527477071623        0.03981603040599
C            2.58028210190900       -1.21425402444508        0.03006176031096
N            1.43813958087363       -1.93419271955128        0.00098261760884
C            0.39035688448383       -1.05887472636071       -0.00790371836672
C            0.93510056364412        0.21347819449412        0.01709077491437
C            0.09450143893243        1.40504303904423       -0.00410947031874
O            0.49712751527797        2.54126714362870       -0.00342325688240
N           -1.25076640035757        1.06271879480407       -0.03085478223738
C           -2.21907211982101        2.15522099834493       -0.05001256985998
C           -1.81739487048744       -0.20012725993278       -0.04692818574614
O           -2.99983886758376       -0.37846417018721       -0.07008878229737
N           -0.92618586207120       -1.30210215599479       -0.03682761578324
C           -1.46982264913417       -2.64643102187190       -0.06029820460571
H            3.71247264356769        1.21471455160235        1.06488849150277
H            4.00791497605742        1.03430808813993       -0.67357694370751
H            2.69910007168542        2.09770118228144       -0.09130154882931
H            3.56654120610678       -1.63682992603973        0.04233140067262
H           -1.67107961066214        3.09322851271934       -0.02552706933167
H           -2.82428953597071        2.09428624779827       -0.95318082946668
H           -2.87644029173232        2.07745725625962        0.81450067533302
H           -1.17061996399332       -3.19584890659852        0.83242232437030
H           -1.14560257411436       -3.17511610292205       -0.95688275822323
H           -2.55549792440841       -2.55659984320617       -0.07459039797972
H            1.38130855184625       -2.94313852034425       -0.01389874181052
25
 energy: -0.060107768103 xtb: 6.6.1 (8d0f1dd)
C            3.25902726426658        1.16262549351034        0.08205037488942
N            2.31661001771208        0.08663821884866        0.03871738078650
C            2.60925102169789       -1.23947054042564        0.02563277217212
N            1.43983724548946       -1.94840527394474        0.00175812324188
C            0.40697828900989       -1.06447839224861        0.00114972209209
C            0.93694489440854        0.21520816100291        0.02544610064554
C            0.10099879011349        1.38960930553364        0.01062011114579
O            0.50617645197514        2.55177418609463        0.01555594696348
N           -1.27093519401074        1.05461114310756       -0.04687801900831
C           -2.25135355056499        2.16041641095175       -0.09120894934451
C           -1.81730745622041       -0.20706125396580       -0.03528546222232
O           -3.01146771634146       -0.39871997366646       -0.04659085580190
N           -0.92317308393755       -1.30776336441213       -0.02124929871046
C           -1.45478314552483       -2.65354209338870       -0.04704517095443
H            3.73748797955202        1.20920298187470        1.06360912976952
H            4.02773420593587        1.01989295727716       -0.67909907203700
H            2.71933509347020        2.08974698202404       -0.09783448351997
H            3.58809843920910       -1.66312207013414        0.02867019231903
H           -1.67057410630767        3.07767966391867        0.04378152779839
H           -2.95677624955488        2.33322656557680       -0.99235142123396
H           -2.94394769048110        2.03175071247662        0.72641623645429
H           -1.15057659528147       -3.20673476670618        0.84370436129258
H           -1.12313850446031       -3.18128638529204       -0.94376597003759
H           -2.54035640036311       -2.57016160715994       -0.06318431770100
H            1.37812466814448       -2.95260845868108       -0.01558506285190
25
 energy: 16.518086880008 xtb: 6.6.1 (8d0f1dd)
C            3.28600276254824        1.14847782470442        0.07772795043275
N            2.33113788161500        0.09161617432674        0.03676858567521
C            2.63278311579385       -1.26283657751781        0.01879599474993
N            1.44148497485388       -1.95840390365140        0.00217964602731
C            0.42403143292480       -1.07132042855515        0.01340009321243
C            0.93528081091594        0.21704433320305        0.03611861109027
C            0.10598027821401        1.37216501801619        0.01891799005767
O            0.51005440276059        2.54667508209259        0.04546063088938
N           -1.30389638429416        1.05733668228989       -0.08440716653467
C           -2.29256451053595        2.18185422738529       -0.13516854075674
C           -1.81403355044530       -0.21170672042422       -0.02228763335705
O           -3.01035677960945       -0.42813038607861       -0.00407186408013
N           -0.91824024272225       -1.31076547602333        0.00283941216791
C           -1.43280910174628       -2.66150686983985       -0.02759553317352
H            3.77059855968596        1.19791893661082        1.05848211191092
H            4.05473214066385        0.99568074829690       -0.68446741619642
H            2.75323772161006        2.07742093549383       -0.10715145816448
H            3.60618646725774       -1.68589962349784        0.00817811215837
H           -1.67676343657656        3.06696162330267        0.14592896555187
H           -3.08576841545528        2.63437549813178       -1.04558626039537
H           -3.05229448977751        1.95201467856752        0.60322247431727
H           -1.12374692710750       -3.22050892878168        0.85988752551564
H           -1.09213849682086       -3.18720665833099       -0.92480167204691
H           -2.51878957493103       -2.59110800348354       -0.04664256695492
H            1.38210602911444       -2.96111958406531       -0.01869409594944
25
 energy: 35.463306139266 xtb: 6.6.1 (8d0f1dd)
C            3.31171372586180        1.12816212648880        0.07425664346535
N            2.34174840531967        0.08551369058479        0.03458934882675
C            2.64314344512056       -1.27856729503547        0.01194949785696
N            1.44570513711873       -1.96499394137820       -0.00012138479119
C            0.43573006800631       -1.07679715443600        0.02265763113435
C            0.93790801010727        0.21696859942432        0.04446735904241
C            0.11321388363457        1.36897137078684        0.02371126899495
O            0.51584012374251        2.54248838256744        0.07657209823589
N           -1.32510077953512        1.07370463147646       -0.11543621107942
C           -2.33031569895391        2.21077145060276       -0.16065052475079
C           -1.80929028765216       -0.20820680092059       -0.00609897585001
O           -3.00276453286163       -0.44718555451407        0.04094513506717
N           -0.91101665307634       -1.30747074758845        0.02535000897823
C           -1.41290723913291       -2.66440105621263       -0.01109911273257
H            3.80049322619255        1.17824379107127        1.05397037087051
H            4.08057400117374        0.96519869667281       -0.68691695826163
H            2.79293025514973        2.06469332224023       -0.11421772363463
H            3.61622040212956       -1.70293091393064       -0.01386867388424
H           -1.72379250025816        3.06405029510615        0.22867105869983
H           -3.17962904796851        2.85657429218072       -1.08747923554630
H           -3.15669711233708        1.87675195034261        0.47878269361909
H           -1.09924793291771       -3.22803658812830        0.87275858574494
H           -1.06362229947516       -3.18522039292226       -0.90924289579483
H           -2.49962948491744       -2.61005979679973       -0.03206624931470
H            1.39100755346539       -2.96919375550691       -0.02444985874881
25
 energy: 51.319712453276 xtb: 6.6.1 (8d0f1dd)
C            3.32687615098525        1.11362404609665        0.07384130881094
N            2.34912406781911        0.07652604776123        0.03244664418841
C            2.64614459317742       -1.28503458507012        0.01088624007549
N            1.45203869729508       -1.96859970440209       -0.00135239542666
C            0.44258576542210       -1.08191891147476        0.02521021867105
C            0.94375931364925        0.21377782226065        0.04617537837362
C            0.12427135585279        1.36936622142339        0.02180065318552
O            0.52142114134733        2.53703383369965        0.09536789095125
N           -1.32919191845072        1.08250225628935       -0.13191176253781
C           -2.34900028902407        2.22206889229878       -0.16436164230176
C           -1.80394186664374       -0.20545316662615        0.00637296768559
O           -2.99242646380748       -0.45547686206110        0.07456081147042
N           -0.90435104319856       -1.30446918149886        0.03705419711930
C           -1.40184898966687       -2.66479960067414       -0.00334256453654
H            3.81408596444578        1.16418921913105        1.05430187706289
H            4.09665522441000        0.94463561020999       -0.68468158673205
H            2.81780640852882        2.05549962709995       -0.11790907245034
H            3.62056592932045       -1.70950858363474       -0.02460197555116
H           -1.77038451885708        3.04339277547150        0.26638223993070
H           -3.27585151373583        3.00880927386196       -1.10420810375396
H           -3.19653229254889        1.83849693512663        0.38850725021452
H           -1.08624685478342       -3.22921227010913        0.87935397577755
H           -1.04682584150014       -3.18129768098100       -0.90191811115314
H           -2.48866190428891       -2.62062455186569       -0.02574504277530
H            1.40214355218860       -2.97449886016105       -0.02519550015124
25
 energy: 62.101180580262 xtb: 6.6.1 (8d0f1dd)
C            3.32879350331739        1.11019367106414        0.06875925383029
N            2.35357229677611        0.06904701442087        0.02739511500299
C            2.64503924561763       -1.28416565524895        0.01316902863908
N            1.45799359886229       -1.96998628275413        0.00066842512584
C            0.44451894710214       -1.08632840700216        0.02330768503142
C            0.95043304709875        0.20896959703941        0.04386386517376
C            0.13815828719573        1.37016774601061        0.02609307109947
O            0.52803076313013        2.53310232428248        0.10579557715998
N           -1.31776464592865        1.08084156142769       -0.12543273905579
C           -2.33870581287268        2.21667787198988       -0.15298942222273
C           -1.79905160918444       -0.20549254209892        0.01004198430623
O           -2.98353316903062       -0.45404791921402        0.08596788605762
N           -0.90040034055851       -1.30452077176676        0.03850203435627
C           -1.40148934504087       -2.66508177746286        0.00167572823358
H            3.81316770871097        1.16405719341744        1.04985887925632
H            4.09819740336487        0.94128666194193       -0.68884834441293
H            2.81906508559921        2.05147049590119       -0.12512147276009
H            3.62097439123758       -1.70803617987366       -0.02604258937965
H           -1.78526947058786        3.02124036655443        0.31615994249146
H           -3.33093533839838        3.11013061394394       -1.13014906792939
H           -3.21783080617705        1.79639492968089        0.31250012874907
H           -1.08663885111591       -3.22623132727343        0.88633268832526
H           -1.04672211105347       -3.18259428425319       -0.89551137780954
H           -2.48779528826608       -2.62130054171391       -0.02036956439263
H            1.41040717813803       -2.97676575684096       -0.01859281872857
25
 energy: 82.845071144516 xtb: 6.6.1 (8d0f1dd)
C            3.33112092326409        1.10421497602647        0.06285131743896
N            2.36367164891364        0.04951220699515        0.01822877809715
C            2.63873968445876       -1.27803057128659        0.02073799729183
N            1.47216631599561       -1.97140687033649        0.00410452025199
C            0.44586026277383       -1.09566709597607        0.01852336856865
C            0.96700302755576        0.19731489366471        0.03621863915451
C            0.16917254199314        1.37204925819230        0.03338215710315
O            0.53852525111641        2.52385681061943        0.11982430775999
N           -1.28371046884443        1.07048573241814       -0.08809010411339
C           -2.29271627322572        2.18800120630739       -0.10893568497310
C           -1.78930218345224       -0.21148080870486        0.02614611620045
O           -2.96392138821664       -0.45509664854445        0.10960571544187
N           -0.89054173476951       -1.30814797399862        0.03950388113574
C           -1.39950038348400       -2.66989699928651        0.00849140352977
H            3.80933126494161        1.16355900983333        1.04492657219966
H            4.10027806833576        0.93813557638986       -0.69226326063041
H            2.81860111855601        2.04408644527312       -0.13320995842055
H            3.61858867071706       -1.70301363667591       -0.02667651161806
H           -1.81501011488412        2.96538121394192        0.38222254688649
H           -3.51436443599558        3.34200197363670       -1.18661749772696
H           -3.22104472691390        1.73993246997700        0.14984918806152
H           -1.08637440038833       -3.22540864559285        0.89629752098960
H           -1.04578763273632       -3.18682782591384       -0.88699434496677
H           -2.48485828316101       -2.62446945043668       -0.01268374940039
H            1.42628791538641       -2.98005664435074       -0.00840902211444
25
 energy: 94.393876517323 xtb: 6.6.1 (8d0f1dd)
C            3.32843350410077        1.10243290523310        0.05652594166576
N            2.37187139882013        0.02756649160620        0.01262947213419
C            2.62760919009342       -1.26504909960662        0.02827766573213
N            1.48706123122935       -1.97118407812616        0.00894125791435
C            0.44225480494242       -1.10314370100159        0.01622266445501
C            0.98538817349556        0.18415209479043        0.03200701185745
C            0.19594504408402        1.37548979562035        0.04583240419893
O            0.54346505666666        2.51524544577315        0.12397149002351
N           -1.23544979432003        1.05056855701920       -0.01963319096785
C           -2.20946163049381        2.13408717767169       -0.04168541498225
C           -1.78114864524633       -0.22299435533057        0.04182074592697
O           -2.94691534384659       -0.45641203893732        0.11975129506717
N           -0.87901780337477       -1.31603153497310        0.03712566799499
C           -1.39877324497426       -2.67766087566193        0.01315018770600
H            3.80240372696746        1.16573367828774        1.03785936451066
H            4.09578564539481        0.93988676749329       -0.69767762222791
H            2.81107173309443        2.04025410143933       -0.13968663872818
H            3.61242897482386       -1.69417733122840       -0.02776350673948
H           -1.83041600329709        2.92557816590144        0.45186134211704
H           -3.72577550080360        3.55402351996619       -1.26778380705650
H           -3.20150987845517        1.70520397281681       -0.02149629330779
H           -1.08835583065918       -3.22548868116260        0.90506568583307
H           -1.04832763546445       -3.19360087408850       -0.88078153838129
H           -2.48330721227199       -2.62428504755201       -0.00654702296509
H            1.43695470743069       -2.98116645377826       -0.00095326563361
25
 energy: 94.510816859549 xtb: 6.6.1 (8d0f1dd)
C            3.32204918985389        1.10912566021315        0.05980779415573
N            2.37052429353143        0.01919106035180        0.01894184763252
C            2.61461660972372       -1.24814740258618        0.02828452605637
N            1.49195366581449       -1.96675021238507        0.00943982070551
C            0.42950030233200       -1.09662875423941        0.01540141666468
C            0.99327914295733        0.18355582852364        0.03396895548728
C            0.18927646770328        1.38394484716774        0.05343238778609
O            0.53072554880123        2.52384457185447        0.11080319888653
N           -1.19856097972328        1.02976089582006        0.05654829872675
C           -2.11920354626761        2.05853444155382        0.03938068978132
C           -1.78805250541723       -0.23617124644947        0.04099444765309
O           -2.95571413409377       -0.45414118141489        0.09689854612326
N           -0.87646432690855       -1.32267561656966        0.02531078327581
C           -1.40167550987283       -2.68278618072830        0.00632189522973
H            3.79616256868064        1.16648701553403        1.03941415921582
H            4.08837760558568        0.94653275864314       -0.69476219919267
H            2.80234891155496        2.04580178596172       -0.13300702685519
H            3.60234527849328       -1.68876281379675       -0.02565853390981
H           -1.82794197258808        2.95361209679522        0.43185043145336
H           -3.84532726166483        3.50160222132995       -1.33662248994868
H           -3.10015966480848        1.77909898359573       -0.04325915914419
H           -1.09137620672346       -3.22532775985092        0.89979295170585
H           -1.05339906789865       -3.19545377731921       -0.88760854135089
H           -2.48646691408179       -2.61952103415798       -0.01241846232496
H            1.42539717295292       -2.97569758567475       -0.00622184166603
25
 energy: 91.962176506587 xtb: 6.6.1 (8d0f1dd)
C            3.32149961193360        1.11649512483527        0.05804998578503
N            2.37609856117149        0.02439061422973        0.02414823017274
C            2.62973526431001       -1.25794184519384        0.01541186132396
N            1.50041024823655       -1.97628476485492        0.00594199148325
C            0.43617620435100       -1.09684098422720        0.02173287349907
C            0.99751081828358        0.18708830003350        0.04811784483426
C            0.18740955791414        1.37467842079898        0.07202870153928
O            0.54747819901563        2.53366149021166        0.10755661152431
N           -1.18295710616540        1.02347505453088        0.12025787364279
C           -2.05135587461468        2.01924229355434        0.13002082343824
C           -1.78238456983404       -0.24886035334737        0.05789968233179
O           -2.96462096591173       -0.45850063983236        0.09030265607429
N           -0.87306369377139       -1.33411251104231        0.02578249731261
C           -1.40313154402832       -2.68819208638827        0.00019472227425
H            3.79555113497947        1.17164723117339        1.03800796030751
H            4.08754611808274        0.95711399839804       -0.69965409098793
H            2.78884194293548        2.04555199681132       -0.13242370501459
H            3.61355904489716       -1.70299168276685       -0.02522237483433
H           -1.80452409380877        3.02736012401796        0.39337755254673
H           -3.94543885651822        3.48149049360161       -1.40220881244689
H           -3.13543438998694        1.82228893210503       -0.08592656736594
H           -1.09507478732755       -3.23504518553129        0.89148585095478
H           -1.06189472895718       -3.20174193624829       -0.89690997443849
H           -2.48881233260532       -2.61333813330913       -0.01634044796075
H            1.41909090535494       -2.98160534938797       -0.01459784984866
25
 energy: 86.922674648687 xtb: 6.6.1 (8d0f1dd)
C            3.32271460878102        1.12104893108157        0.06557055036209
N            2.37574108374279        0.04873068354761        0.03667208695666
C            2.66130120488209       -1.28450523105656        0.00391567884182
N            1.50082179886499       -1.98858087524804        0.00609149119529
C            0.45656580728215       -1.10130778466988        0.03139840396823
C            0.98471780067943        0.19669986401629        0.06676260336896
C            0.17511462217533        1.34684305199028        0.06876374394332
O            0.57309289358541        2.53248980647745        0.09610998446219
N           -1.21956562580940        1.03479878750294        0.08161484398116
C           -2.09254495738399        2.04640921031442        0.15909984812299
C           -1.77043198498327       -0.25953677166141        0.05839657571726
O           -2.97213904344981       -0.47191254416314        0.07589819771412
N           -0.87499833849784       -1.34582340437562        0.03036465655228
C           -1.39979251110022       -2.69243344316287       -0.00713392434464
H            3.79517557948549        1.17843200485339        1.04891344937374
H            4.09284996921418        0.96411173630369       -0.69259659437551
H            2.78059019946727        2.04417964618420       -0.12680732666505
H            3.63525351582819       -1.71708804906387       -0.01531861073069
H           -1.72583867290704        3.07169430920006        0.28563953262331
H           -4.04419350728949        3.48167059818909       -1.41047173401606
H           -3.11915398812495        1.84659369899501        0.03094987201795
H           -1.09640333436094       -3.24681344376409        0.88277430753559
H           -1.05979485343697       -3.21188477845581       -0.90608356208605
H           -2.48676697027858       -2.61523778585368       -0.02703502855706
H            1.41989937157045       -2.98954961500911       -0.01645514981459
25
 energy: 86.548044301523 xtb: 6.6.1 (8d0f1dd)
C            3.32116250816763        1.11775504861917        0.06654632406342
N            2.37298530381319        0.04458194498730        0.03810537168568
C            2.65721988494814       -1.28086531597261        0.00139260163058
N            1.50045154348184       -1.98427448939141        0.00298173112156
C            0.45880362619122       -1.10731823885018        0.03837752475819
C            0.98472175761540        0.18925293886573        0.07589934011978
C            0.17887807534074        1.33826138408672        0.09410980895817
O            0.57260871023373        2.51742909545084        0.10066882521661
N           -1.21796811446713        1.03007591622667        0.11299289628311
C           -2.08739032951618        2.04041438356739        0.18292368121761
C           -1.76107201563939       -0.26780021550340        0.07741515593570
O           -2.95889343766750       -0.47151312114102        0.07560710251236
N           -0.87155041624654       -1.35059814540844        0.03683665126626
C           -1.39548550431027       -2.69693022496757       -0.00801656384704
H            3.79914655056257        1.17985326119133        1.04695293692836
H            4.08939884847626        0.96473500369250       -0.69250395809591
H            2.78289564728332        2.04552722385414       -0.12302017335710
H            3.63383673256261       -1.70579319727231       -0.02207689989381
H           -1.67114682834926        3.02972493945644        0.24256417325365
H           -4.14701584944623        3.56098347628141       -1.45489839467726
H           -3.12696760988621        1.87134530506252        0.01771748056983
H           -1.09155142170849       -3.25538149135840        0.87941368842939
H           -1.05417775260384       -3.21081022577741       -0.90902872223784
H           -2.48241236923061       -2.62264198424505       -0.02800320044693
H            1.42573712833129       -2.98698466928242       -0.02592348524709
25
 energy: 86.184219913193 xtb: 6.6.1 (8d0f1dd)
C            3.32056590666495        1.11528157852565        0.06755259001247
N            2.36980892315617        0.04312786962419        0.03673024088585
C            2.65077401111167       -1.27701955248376        0.00282364659551
N            1.49379835749200       -1.97791583779421        0.00194154914193
C            0.45747039645001       -1.10702464425525        0.03667148732181
C            0.98405660820634        0.18683262252143        0.06843527902982
C            0.17963975941403        1.34033748808768        0.09559844593386
O            0.56977051276304        2.51389638925187        0.09225763740008
N           -1.21566465352074        1.03007454477580        0.11965577060375
C           -2.09566055608460        2.04409894769842        0.19495838631420
C           -1.75585232597276       -0.26639077976350        0.06978701804099
O           -2.95298307296474       -0.45895631307831        0.06357929351276
N           -0.87216518904673       -1.34763396003842        0.03226104669557
C           -1.39693359063786       -2.69358033310598       -0.00761802478887
H            3.79967640739740        1.17931091410055        1.04760177819352
H            4.08927309178890        0.96219165538114       -0.69018267389166
H            2.78715476329402        2.04717837761461       -0.12236282160314
H            3.62974118444837       -1.69864447296491       -0.01912403926025
H           -1.65925901903124        3.03089574800558        0.21973556081016
H           -4.12239091939957        3.52748081007802       -1.47312637562237
H           -3.14138318996273        1.85768665555683        0.07129684001271
H           -1.09231235134797       -3.25107227126351        0.88049692217463
H           -1.05534770726126       -3.20855843210207       -0.90722784436050
H           -2.48370410744164       -2.62004987310949       -0.02808264923614
H            1.42414142842124       -2.98251852909045       -0.02662516776937
25
 energy: 86.285876310900 xtb: 6.6.1 (8d0f1dd)
C            3.32025235513189        1.11246178422125        0.06849660207736
N            2.37093670985870        0.03795739274277        0.03564702960516
C            2.64809735792538       -1.27631220763651        0.00702169937161
N            1.49398956186587       -1.97703350503086        0.00376017915712
C            0.45774076570811       -1.10959464309477        0.03460287498001
C            0.98658891252832        0.18411035919213        0.05785066912150
C            0.18606845510750        1.34555751651353        0.08466061739305
O            0.57066803276849        2.51405677592463        0.08806102785188
N           -1.21033775646873        1.03069803173105        0.11505465851100
C           -2.09312499488041        2.04869467988241        0.20576613696191
C           -1.75317903802315       -0.26563198332435        0.06552066884193
O           -2.94989652622495       -0.45337926691513        0.06764798531218
N           -0.87155991191705       -1.34535755896332        0.03023452275661
C           -1.39811460017490       -2.69226892119733       -0.00745329081613
H            3.79529947262009        1.17795990806988        1.05032181759657
H            4.09030941618795        0.96048011195190       -0.68764943434615
H            2.78608081164786        2.04412725422392       -0.12336606340151
H            3.62975374249980       -1.69730436862076       -0.01508333362317
H           -1.67647977318340        3.04079495019271        0.21940725416695
H           -4.13512753490077        3.54290209493994       -1.50746956936138
H           -3.13111321757925        1.82603751415160        0.10715026874711
H           -1.09462516661695       -3.24888023785223        0.88153623378542
H           -1.05675556379199       -3.20857860429376       -0.90612902650835
H           -2.48450545482145       -2.61868071611241       -0.02881908171501
H            1.43124861266932       -2.98378775852433       -0.01973655031836
25
 energy: 86.163406188614 xtb: 6.6.1 (8d0f1dd)
C            3.32055722027923        1.11319019323654        0.06828911267507
N            2.37180537814962        0.03799397233165        0.03687538940472
C            2.64859229112563       -1.27724275374149        0.00486402678293
N            1.49426215680342       -1.97818506858602        0.00196572233203
C            0.45653882725396       -1.10913268626931        0.03736809798396
C            0.98586246862737        0.18593049897141        0.06100139732546
C            0.18547981000956        1.34831230107902        0.09035241638972
O            0.56859448260783        2.51736008232826        0.09631293459301
N           -1.21183513240910        1.03061820547828        0.12068688059669
C           -2.08938620647470        2.05176161289778        0.20683433669128
C           -1.75745728962501       -0.26586097359783        0.07424939323708
O           -2.95510341754955       -0.45583772734442        0.07451767829492
N           -0.87356840810475       -1.34405067670626        0.03466820988998
C           -1.39822455847030       -2.69245874686863       -0.00878116435709
H            3.79716632304548        1.17588661579579        1.04931625243083
H            4.08891800673023        0.96213556025544       -0.69014657816863
H            2.78517357573392        2.04412918598979       -0.12092489794996
H            3.63018343694522       -1.69989471205479       -0.02136643681214
H           -1.67864579836771        3.04407371514377        0.20819230178816
H           -4.12193251409086        3.53087023803655       -1.54370752403979
H           -3.13437305417631        1.83168423460614        0.12880661623372
H           -1.09369642975356       -3.25090526858673        0.87860746404843
H           -1.05595903624342       -3.20605141379018       -0.90912592952463
H           -2.48469304338006       -2.62021947669210       -0.02938106040823
H            1.43395557927013       -2.98507830974074       -0.02244074329020
25