72
 energy: 0.000000000000 xtb: 6.6.1 (8d0f1dd)
N           -1.47310934822924        2.74401318561852        2.22063942287560
C           -1.55658894218425        2.16490305624665        1.13274284460745
C           -2.74549225258129        2.05621251263064        0.23826250649470
C           -3.31377583855761        0.64333417511334        0.32332515650284
C           -4.30230195924506        0.24487112428158       -0.58026167086503
C           -4.85238808050968       -1.02286499940159       -0.53363593669082
O           -5.81420026757557       -1.48606047972767       -1.36157895357670
C           -6.39655692584623       -0.60827005826649       -2.29568495601309
C           -4.39972542350640       -1.94646120241305        0.44396933240983
O           -4.98748357557592       -3.16146026488900        0.41085995818162
C           -4.66362171172287       -4.10093865802695        1.40909140816864
C           -3.42072545213514       -1.54561399150247        1.33436558640148
C           -2.88302826362110       -0.26315802838497        1.27400162590187
C           -2.19303818453636        2.30467021687947       -1.18742988123374
C           -1.26651549989641        1.17243380322503       -1.65249445018642
C            0.01082525039567        1.09745464658138       -0.89354811789923
N            0.61779399208289       -0.02034948241203       -0.57705527866251
C            2.00145228921113       -0.02376006609561       -0.15611401051620
C            2.92554961797610       -0.53865287672537       -1.27700100652360
C            4.35756883501756       -0.43050761225877       -0.83075552032494
C            5.07346182539911        0.73206415878124       -1.03980975472950
C            6.38628045899965        0.84224449235903       -0.60344828301384
C            7.00047329721665       -0.20824758267940        0.05722314949100
O            8.26703733840855       -0.21011315050632        0.52410948507466
C            9.06912311989339        0.92943609656965        0.31863060963839
C            6.27040022445068       -1.40439766990411        0.28033468609137
O            6.94830004375713       -2.38012947787858        0.92752007684741
C            6.31537376337817       -3.61583233633369        1.15217722400438
C            4.96302840674480       -1.49347485723979       -0.16064431849589
C           -0.05511211878686       -1.29906259857679       -0.62085692079872
C           -3.86758072907722        3.07992629005348        0.58498065642721
C           -4.49286201346546        2.77383518785172        1.94313307512182
C           -3.39165211343248        4.52917708609625        0.54797528556046
H           -4.66030069703099        0.94509076131725       -1.31640581036773
H           -6.85037992114187        0.25803164586058       -1.80468862056629
H           -7.17287509152171       -1.18600121846629       -2.79318183475679
H           -5.66836870040540       -0.26952968819383       -3.04040283452035
H           -4.88416765986127       -3.71589494995018        2.40913564538747
H           -5.29223619720187       -4.96637504833431        1.20969248126828
H           -3.61139846644506       -4.39919876145526        1.35529370415983
H           -3.07077825100221       -2.21868786295666        2.10002682176568
H           -2.14562774333496        0.02067850888151        2.01001363031684
H           -3.02188903413801        2.38238034416975       -1.88813562572432
H           -1.65198546223364        3.25146730843841       -1.20556295755141
H           -1.81103391047759        0.23006526775522       -1.62116316669324
H           -0.99335697743926        1.37490224954061       -2.69443281971844
H           -0.67628070635666        1.65183902374723        0.61785732877701
H            0.63525847086258        1.98466388206871       -0.92314029755375
H            2.11132572081740       -0.65949698961381        0.72532619960637
H            2.30680494458141        0.98978260887088        0.11078973822125
H            2.76694224489122        0.06750735773687       -2.17075272340394
H            2.67954606229959       -1.57455642411728       -1.51167757545099
H            4.62170041431221        1.56295626549351       -1.56123593485311
H            6.92357738865082        1.75715832247601       -0.79119604059515
H            8.65159193263071        1.81001840117181        0.81701562739969
H            9.20136256512460        1.14042868409438       -0.74698998879646
H           10.03428931104811        0.69003246578081        0.76064945022918
H            7.05567240429544       -4.23621211097668        1.65347581279537
H            5.43848051513375       -3.50813590722545        1.79970582482858
H            6.02060097762632       -4.09420535105165        0.21253284608183
H            4.40102799328555       -2.40127288651695       -0.00490198294521
H           -0.22071301762289       -1.61775598610935       -1.65116024301020
H           -1.01972267469312       -1.24102728946113       -0.10935207845464
H            0.55899959333766       -2.04486104898380       -0.12333731565713
H           -4.63991918782192        2.95501120214274       -0.18098089750912
H           -3.76095251366987        2.90314731895452        2.73380846416528
H           -4.87457659255110        1.75695657819473        1.97884621460846
H           -5.31925601899505        3.45579242388173        2.12325583951056
H           -2.60025614255587        4.69225089676674        1.27368930043085
H           -3.03987434616939        4.81897697030947       -0.43870979129779
H           -4.22191779840287        5.18069696155015        0.80616701440619
H           -0.59832439338922        2.77744720721660        2.72959009765665
72
 energy: -4.602141959888 xtb: 6.6.1 (8d0f1dd)
N           -1.50389969510228        2.77111687796911        2.24327298054521
C           -1.57224207984432        2.15061497761945        1.15893733099078
C           -2.75240837287875        2.06490281383123        0.24231635930476
C           -3.32730779653281        0.65563285077136        0.31592293214702
C           -4.31315144661953        0.25150613541909       -0.58787420441773
C           -4.85665218823180       -1.02289511351518       -0.54689359688453
O           -5.82434789938108       -1.47346486919150       -1.38847260182209
C           -6.39511831953606       -0.57927100961899       -2.31803618581348
C           -4.39070320789836       -1.94846586486798        0.43305055289182
O           -4.92336537064415       -3.19972948578251        0.44513411877149
C           -4.59432042414617       -4.11877207755005        1.46866673914713
C           -3.42376123739993       -1.53472454619927        1.31906504163113
C           -2.89668432880862       -0.25159567508016        1.26361718052847
C           -2.19082409932109        2.30933909497416       -1.18220712144981
C           -1.26326867510012        1.18864914588211       -1.67511833802312
C            0.00624562477487        1.11873979858032       -0.89646157195810
N            0.62497598351857       -0.04551088135367       -0.57051651261360
C            1.99922203000107       -0.04673757557955       -0.15939773818230
C            2.92979792691991       -0.54542638466223       -1.28261218881921
C            4.35701119668230       -0.43802227432424       -0.84158463029884
C            5.07080656143285        0.72850764556955       -1.04023997450034
C            6.38059902285610        0.83980654475893       -0.59788410586612
C            6.99406505396542       -0.21238056233841        0.06039309361285
O            8.26807448657418       -0.21589473681586        0.53016992561961
C            9.06374650225639        0.92552303312480        0.32540033697633
C            6.26593945782349       -1.40751379355142        0.27912126120075
O            6.94726913369462       -2.38811540451067        0.92743999699364
C            6.31144951997868       -3.62198271176166        1.14698114682486
C            4.96211289516735       -1.49936006582456       -0.16739394051267
C           -0.05887572147190       -1.31036532022430       -0.63464664200822
C           -3.87607752352021        3.08618166676000        0.57811082336187
C           -4.50794920166925        2.78115975111911        1.93392274484148
C           -3.39324506386523        4.53422627347556        0.55215778772679
H           -4.66546683014459        0.95524163956199       -1.32593555843706
H           -6.84829380127640        0.28840936015159       -1.82665169811013
H           -7.17374220017445       -1.14445392756912       -2.82829451827783
H           -5.66466645295507       -0.23374797880756       -3.05839617513385
H           -4.84894446587840       -3.74021151490888        2.46270900275836
H           -5.20022267484311       -4.99740605580990        1.25933861751903
H           -3.54416580782888       -4.42724982559079        1.46287890179786
H           -3.06982010632636       -2.21673695529772        2.07399430122354
H           -2.15498083932577        0.02663263434864        1.99440967729506
H           -3.01790321982300        2.40444911189485       -1.88584072842835
H           -1.63992380757654        3.25102279744461       -1.18976721849936
H           -1.80601909522990        0.24505182530318       -1.63281811866213
H           -1.01657525291505        1.39159628438066       -2.72610945641083
H           -0.69548012592433        1.63983997016002        0.66030405172570
H            0.64527014717926        1.98995694487287       -0.94595113778771
H            2.11114791257787       -0.68388142232473        0.72194011058808
H            2.29392907104560        0.96914497939139        0.11386880116364
H            2.76136972033427        0.06811386338554       -2.16926753122609
H            2.67885145833424       -1.57897815901051       -1.52193827194190
H            4.61606315735165        1.56092839806229       -1.55642516114014
H            6.91769004388699        1.75639080822420       -0.78163561947922
H            8.64414455923528        1.80498581444119        0.82504110953329
H            9.19402918012730        1.14005586752250       -0.74036080493388
H           10.03008844158891        0.68745680855010        0.76619483825212
H            7.05052019415264       -4.24453297455876        1.64836503013833
H            5.43259864869037       -3.51530063936927        1.79219730595787
H            6.01647278893782       -4.09822943729752        0.20588574876368
H            4.39810828675042       -2.40619277857900       -0.01165819919308
H           -0.22678578424254       -1.61997823597701       -1.67074859945840
H           -1.02601898886348       -1.24702362757934       -0.12761287451975
H            0.54749690462882       -2.06356254728706       -0.13934858800205
H           -4.64710758880380        2.97133149476259       -0.19212506293971
H           -3.77334347603476        2.90547823300983        2.72323907179691
H           -4.88752909988058        1.76285313315776        1.96493315865753
H           -5.33550088987463        3.46365565113010        2.11395050082722
H           -2.60171153847582        4.68491299396238        1.28052886209688
H           -3.03210006282515        4.82318324790096       -0.43167785388583
H           -4.22123503485017        5.19138649598005        0.80889455488217
H           -0.62545731753970        2.76902123733759        2.75203506400443
72
 energy: -1.115200735693 xtb: 6.6.1 (8d0f1dd)
N           -1.55519603842082        2.80814127221308        2.26560896070986
C           -1.59265324713565        2.13727475649319        1.18941167564915
C           -2.76364271893681        2.07744333119415        0.24452140071773
C           -3.34623685063469        0.67186716920668        0.30005248531659
C           -4.33063913193504        0.25640847153152       -0.60067477005094
C           -4.86657634326074       -1.02743442608472       -0.56938127782297
O           -5.84330143269850       -1.44901124571763       -1.43675208243957
C           -6.39250428563134       -0.52704344433673       -2.35782585962604
C           -4.37817181385760       -1.95399653264167        0.41183139304907
O           -4.80456299598687       -3.27008783672936        0.50578279666250
C           -4.47230464026807       -4.14977390106823        1.57430827455799
C           -3.42626312284129       -1.51651108356427        1.29134689740153
C           -2.91434475615238       -0.23388119869041        1.24567457987019
C           -2.18541260246670        2.32471413628001       -1.17485045312485
C           -1.26156303354845        1.20821034600396       -1.69266863798745
C            0.00000361809081        1.14262886581361       -0.89921932955545
N            0.62675111964442       -0.07607675222038       -0.56565666424015
C            1.98912657454510       -0.07607818721559       -0.16578058193069
C            2.93182021398342       -0.55520361135841       -1.29100718243801
C            4.35241334085160       -0.44845142713478       -0.85237245390224
C            5.06485790729770        0.72171961155674       -1.03864370893019
C            6.37164138339693        0.83462900357553       -0.58903972007592
C            6.98279622395251       -0.21998445620054        0.06466475667641
O            8.26599313887132       -0.22518471076620        0.53907298373075
C            9.05292429731417        0.91861154269393        0.33704410381064
C            6.25830862562805       -1.41348288491865        0.27586250284650
O            6.94355174179165       -2.40125596913714        0.92548820631426
C            6.30392882429899       -3.63249530716094        1.13742187451773
C            4.95818142108446       -1.50868213761612       -0.17757750470882
C           -0.07092261622710       -1.32202475191641       -0.66295058151142
C           -3.88585395671426        3.09793558440943        0.56779213391716
C           -4.53309448788845        2.79203592462291        1.91750939514894
C           -3.39405458611081        4.54462711856183        0.55822311069239
H           -4.67558307473257        0.96774495503060       -1.33913489750105
H           -6.84482970479143        0.34109135293228       -1.86344461026630
H           -7.17433735870116       -1.07175906282156       -2.88922684365101
H           -5.65637657705528       -0.17216179129302       -3.08963058233008
H           -4.78895044815330       -3.77838243950771        2.55515034788047
H           -5.04116509683332       -5.05000561883991        1.34323263284306
H           -3.42424960093410       -4.46971532003571        1.64923409673918
H           -3.07004902976281       -2.21478385952920        2.02891635273699
H           -2.17093852914837        0.03697058909626        1.97347893953460
H           -3.01007659767331        2.44613289690170       -1.88146389498191
H           -1.61860885723206        3.25808392431816       -1.16341056526845
H           -1.80151568441820        0.26235440794267       -1.64727135569386
H           -1.04600361543288        1.41769421136017       -2.75293186887324
H           -0.72652920633827        1.61263104719894        0.72897253962217
H            0.66423413374223        1.98721591901918       -0.96825024375561
H            2.10848548925181       -0.72208865852617        0.71202141118249
H            2.27545098487838        0.93912192835568        0.12287522591207
H            2.75224769287548        0.06948148406703       -2.16771474387212
H            2.67671632652236       -1.58580300344881       -1.54137172109694
H            4.60610192318485        1.55596878589172       -1.54831779824421
H            6.90718959891425        1.75455375839224       -0.76469423909380
H            8.63148653788538        1.79628221811668        0.83963820530017
H            9.18160283431344        1.13945504116657       -0.72848524369949
H           10.02127394167590        0.68271724599686        0.77566380205131
H            7.04091645841314       -4.25846259783552        1.63882659385473
H            5.42242090147569       -3.52822109144175        1.77969038197546
H            6.00976355691233       -4.10599909165184        0.19406844881896
H            4.39182124300073       -2.41476163279502       -0.02436492654016
H           -0.23847271381763       -1.62142095202045       -1.70619949727779
H           -1.04171398505456       -1.25859378617730       -0.16255710394174
H            0.52432463559003       -2.08833283665166       -0.17143727725680
H           -4.65278354959459        2.99702737551425       -0.21036338379000
H           -3.79880433660295        2.91055578030898        2.70786285079247
H           -4.91197028970119        1.77271606708600        1.94159825604366
H           -5.36148493081865        3.47553798696777        2.09478547406250
H           -2.60512645786731        4.67604037573913        1.29312160955162
H           -3.01860057417024        4.83400667304348       -0.42049487166259
H           -4.21851217096945        5.20866986179738        0.81273916524359
H           -0.67045484198266        2.74814235872466        2.77415914386797
72
 energy: 10.955366656193 xtb: 6.6.1 (8d0f1dd)
N           -1.60789663363486        2.82941019199263        2.28745513162535
C           -1.61443908621109        2.13074339223393        1.21473034031312
C           -2.77655845700509        2.09036996160023        0.24439359987327
C           -3.36505916246595        0.68726854777821        0.28232567558851
C           -4.34745014831268        0.25783495658102       -0.61429847413122
C           -4.87683785164367       -1.03603472610598       -0.59360054018335
O           -5.86200833292873       -1.42013258705494       -1.48912994128882
C           -6.38872287207243       -0.46939492432846       -2.40083044282228
C           -4.36537905359665       -1.96350922558196        0.38824601286475
O           -4.67069398184571       -3.34569423480138        0.57133345866127
C           -4.33955816657600       -4.18204305842813        1.68884463594390
C           -3.42676874047369       -1.49763428886765        1.26187011465595
C           -2.92999889604495       -0.21577798671106        1.22746210822671
C           -2.17970020879480        2.34394557797896       -1.16773920828680
C           -1.26260333590086        1.22687220565066       -1.70428054550045
C           -0.00691827440187        1.16043253892256       -0.90550249312226
N            0.62261589499491       -0.10251796805782       -0.56456240497583
C            1.97655945998051       -0.10424849543031       -0.17141825215965
C            2.93012852308550       -0.56472677058526       -1.30011583227311
C            4.34561273057128       -0.45845229825027       -0.86024132337305
C            5.05727573785101        0.71476567593051       -1.03560909326026
C            6.36158399159758        0.82917516092686       -0.57978641323819
C            6.97068110236123       -0.22845347071288        0.06900901884946
O            8.26059527646772       -0.23466857185258        0.54778457873271
C            9.04043431413857        0.91112052167315        0.34973063789917
C            6.24972943918622       -1.42131935623512        0.27205345461976
O            6.93748044636726       -2.41511593898848        0.92210009175600
C            6.29525925717036       -3.64439347732423        1.12670086643879
C            4.95235101035146       -1.51919351423437       -0.18734223142708
C           -0.08592447576060       -1.33272439549586       -0.69506357981029
C           -3.89558297703597        3.11201448156663        0.55752979206583
C           -4.56020184020228        2.80342892839101        1.89943696554944
C           -3.39373409873705        4.55658232951338        0.56444722593813
H           -4.68740804487545        0.97748756835574       -1.35125873299182
H           -6.84086338532575        0.39802354263813       -1.90266335914393
H           -7.17309927278782       -0.99260224644538       -2.95426567799587
H           -5.64623957543827       -0.10571332324003       -3.12327417723294
H           -4.72319662339230       -3.81883350976815        2.65294104085018
H           -4.86686717080613       -5.10547878711960        1.43456085937348
H           -3.29469583654208       -4.50854557396836        1.85076245987031
H           -3.06991358361875       -2.21271826060777        1.98163855543813
H           -2.18752831610818        0.04856255160315        1.95501308738938
H           -2.99975024331534        2.49179156699493       -1.87765877049343
H           -1.59600441779654        3.26750397506023       -1.13582793968637
H           -1.80097555450981        0.27992050467218       -1.66084872105321
H           -1.06930011834909        1.44415684634897       -2.77018657737657
H           -0.75854820582853        1.58628193779680        0.79618458177885
H            0.68152613177295        1.98048322799171       -0.98258519725498
H            2.10307989717780       -0.76249659056233        0.70027610706480
H            2.25863353082205        0.90792441162338        0.13426552169080
H            2.74310486221360        0.07099759522357       -2.16754241120499
H            2.67381025024961       -1.59266473236749       -1.56300604145779
H            4.59519526941750        1.55065383028645       -1.53974777361065
H            6.89495760225620        1.75239298402083       -0.74689689764267
H            8.61780102128757        1.78672080580567        0.85605824241478
H            9.16812603700732        1.13871680262633       -0.71523258608377
H           10.01074530651239        0.67711630035195        0.78606492649898
H            7.03019610166171       -4.27351332969053        1.62810522596636
H            5.41130457275705       -3.54282030570914        1.76632660240848
H            6.00266400737068       -4.11519846745446        0.18102413230635
H            4.38456272558305       -2.42522394056386       -0.03839152323569
H           -0.25005244768447       -1.62074412560755       -1.74494484796145
H           -1.06078291197963       -1.27178000524521       -0.20209458688220
H            0.49800120031078       -2.11327524526779       -0.20834640751786
H           -4.65617276273023        3.02376231078505       -0.22989205663429
H           -3.82984018724050        2.91692734924899        2.69380838913009
H           -4.93968405511527        1.78385203266874        1.91571249695466
H           -5.38904395502503        3.48799005881509        2.07180010562263
H           -2.60952843316031        4.66994550653835        1.30734429729671
H           -3.00416805475308        4.84765044501852       -0.40848157158733
H           -4.21465997828159        5.22643291401952        0.81629185148533
H           -0.71775717532711        2.72767596550011        2.79152097221992
72
 energy: 31.266014951366 xtb: 6.6.1 (8d0f1dd)
N           -1.66231912726190        2.84740574751797        2.30711335352864
C           -1.63341767072604        2.12939925133850        1.23841155792871
C           -2.78894264240494        2.10334817454850        0.24391370334801
C           -3.38332277908040        0.70269730104446        0.26322296833073
C           -4.36435485460927        0.25862452177507       -0.62803591244407
C           -4.88973765995728       -1.04498503935646       -0.61885493063097
O           -5.88352657575536       -1.38598295083778       -1.54527452890138
C           -6.38713267265628       -0.40880512350195       -2.44692217716088
C           -4.35756788857242       -1.97185022855323        0.36169752324316
O           -4.52629020977191       -3.42412099962109        0.64446226035877
C           -4.20512752832199       -4.21775723972572        1.80854425356805
C           -3.42851743445666       -1.47676156718566        1.23010565377262
C           -2.94469532614994       -0.19771785071792        1.20912341409897
C           -2.17362858847462        2.36487182316520       -1.16093905452540
C           -1.26454355775062        1.24348462456354       -1.71194929850593
C           -0.01335980592746        1.17647535545522       -0.91629996031706
N            0.61563456215882       -0.12590815165166       -0.56464013467677
C            1.96263049474419       -0.12960711102673       -0.17672408850580
C            2.92755278332846       -0.57401672680258       -1.30927998689119
C            4.33862689039612       -0.46786560093105       -0.86634417240466
C            5.05026357432827        0.70757112647781       -1.03254276402514
C            6.35252120523739        0.82382435773533       -0.57087986289483
C            6.95888021392862       -0.23697253149344        0.07305337354662
O            8.25487948915654       -0.24366934742830        0.55622446901071
C            9.02789043128489        0.90352927452212        0.36218954605284
C            6.24192105794859       -1.42903663977754        0.26806004327464
O            6.93134406481123       -2.42871176917354        0.91872845974028
C            6.28675818022300       -3.65579231070569        1.11616094044604
C            4.94663271058275       -1.52959665218735       -0.19687675142851
C           -0.10139415610718       -1.34132359287185       -0.72733709348566
C           -3.90402739506100        3.12644045040328        0.54806178853553
C           -4.58661037213147        2.81417126956684        1.88173036467269
C           -3.39294036043664        4.56886140564037        0.57032766431075
H           -4.69829953483994        0.98864574454259       -1.36269700165280
H           -6.83924007418281        0.45655411877720       -1.94351980400215
H           -7.17310313034436       -0.91275989192032       -3.02047113987547
H           -5.63727641591587       -0.03826215130882       -3.15927270298707
H           -4.65729638335920       -3.86375526739382        2.75316818396727
H           -4.69441876316197       -5.15991267015398        1.52372728029917
H           -3.16711610061280       -4.55402697260913        2.05733364819733
H           -3.07491576172845       -2.21270547632582        1.93015410711280
H           -2.20419475589280        0.05846106892864        1.93788146380955
H           -2.98924026418574        2.53794637213922       -1.87275330268122
H           -1.57301982049459        3.27771879231723       -1.10838421433151
H           -1.79992016563400        0.29515973837250       -1.67443119733688
H           -1.09199133539542        1.47031712173052       -2.78263560431700
H           -0.79110193949836        1.55963725115854        0.86828716343203
H            0.70070761188838        1.97060950993132       -0.99559794751605
H            2.09912042794481       -0.80218236604752        0.68827549929425
H            2.24335898456793        0.87789488601128        0.14643106338554
H            2.73418112790256        0.07225825492856       -2.16784220934411
H            2.67129826193014       -1.59972402515895       -1.58507277423013
H            4.58462786153766        1.54491354768094       -1.53146380346619
H            6.88300389526531        1.75042048491623       -0.72911735219858
H            8.60466554291882        1.77733974937884        0.87227989839076
H            9.15505077851705        1.13796563812048       -0.70214474052818
H           10.00047765409969        0.67194481237442        0.79607285535694
H            7.01942469241182       -4.28830413524365        1.61754669620881
H            5.40047279043046       -3.55711234797816        1.75335428006865
H            5.99596074324632       -4.12418837492978        0.16823975290788
H            4.37739567714075       -2.43547967036218       -0.05246526638424
H           -0.26118743343501       -1.62060707233023       -1.78252575255682
H           -1.07985489773150       -1.28535702129524       -0.24113134821131
H            0.47141963364465       -2.13717185867108       -0.24508639987307
H           -4.65789131779579        3.04953650344976       -0.24868080711015
H           -3.86086805872288        2.92366491576457        2.68021611357183
H           -4.96716719869278        1.79475109391957        1.89062216423911
H           -5.41535128143450        3.49965044023263        2.04900280481008
H           -2.61429858901553        4.66403624054214        1.32145156735583
H           -2.99010215894080        4.86145799015762       -0.39679052655593
H           -4.21018439377086        5.24350389415925        0.81974095426864
H           -0.76530616428581        2.70622965405853        2.80255430997553
72
 energy: 60.731136720338 xtb: 6.6.1 (8d0f1dd)
N           -1.71787783585597        2.84729906516700        2.31045715884638
C           -1.63165031074339        2.15517323785795        1.25462353340905
C           -2.79622975708454        2.11388722662050        0.24310764427935
C           -3.39680963535935        0.71673970950841        0.24058756092169
C           -4.37820768341438        0.25790516067684       -0.64032566560230
C           -4.91178063419173       -1.05273563094724       -0.64447175974072
O           -5.91257285714437       -1.32996084508204       -1.60995206027330
C           -6.39506296933539       -0.34787604160547       -2.49764353830296
C           -4.38183870603316       -1.96728388249250        0.32083900236499
O           -4.34732253615567       -3.50098277210818        0.75280419169629
C           -4.08971561029685       -4.26523687779583        1.93251176031215
C           -3.43445344342104       -1.44947900285086        1.19214813268167
C           -2.95171882930732       -0.18338738606058        1.19433040447347
C           -2.16658987669502        2.39045244266821       -1.15712541424367
C           -1.26851195098922        1.24624706639391       -1.69844001220555
C           -0.01475991711413        1.17883857867581       -0.95401713876471
N            0.59182713695570       -0.12584752457068       -0.57212532553866
C            1.94242337240131       -0.13545580129275       -0.17927872499998
C            2.92058570898363       -0.58130939856783       -1.31784194360724
C            4.33261367331374       -0.47310492325903       -0.86254369387707