25
 energy: 0.000000000000 xtb: 6.6.1 (8d0f1dd)
C            3.23720132972391        1.16630909158653        0.08434468864950
N            2.29877796055224        0.07527476373246        0.03981602671198
C            2.58028186251803       -1.21425391179017        0.03006175752192
N            1.43813944744728       -1.93419254010258        0.00098261751768
C            0.39035684826767       -1.05887462812143       -0.00790371763344
C            0.93510047688824        0.21347817468824        0.01709077332874
C            0.09450143016486        1.40504290868848       -0.00410946993748
O            0.49712746915594        2.54126690785742       -0.00342325656480
N           -1.25076628431515        1.06271869620815       -0.03085477937476
C           -2.21907191394203        2.15522079838987       -0.05001256521996
C           -1.81739470187490       -0.20012724136556       -0.04692818139228
O           -2.99983858926755       -0.37846413507442       -0.07008877579474
N           -0.92618577614240       -1.30210203518959       -0.03682761236648
C           -1.46982251276835       -2.64643077634382       -0.06029819901142
H            3.71247229913541        1.21471443890471        1.06488839270555
H            4.00791460421487        1.03430799217987       -0.67357688121503
H            2.69909982127087        2.09770098766290       -0.09130154035862
H            3.56654087521359       -1.63682977417947        0.04233139674524
H           -1.67107945562430        3.09322822573871       -0.02552706696334
H           -2.82428927394145        2.09428605349656       -0.95318074103337
H           -2.87644002486466        2.07745706351925        0.81450059976605
H           -1.17061985538665       -3.19584861009707        0.83242224714061
H           -1.14560246782873       -3.17511580834413       -0.95688266944647
H           -2.55549768731684       -2.55659960601237       -0.07459039105944
H            1.38130842369251       -2.94313824728853       -0.01389874052104
25
 energy: -6.142167542672 xtb: 6.6.1 (8d0f1dd)
C            3.24144348609147        1.17377968898257        0.08239228361899
N            2.30336091065387        0.10237883725145        0.03401696567932
C            2.60228447214524       -1.24012680258810        0.03124592313153
N            1.42229499120476       -1.94162457281889        0.00214166093099
C            0.39981383958035       -1.06421977821050       -0.00502696200883
C            0.91619644606742        0.22416266137014        0.01929625332921
C            0.10750109253663        1.38263741464521       -0.00236561145634
O            0.48675374900345        2.55785566973385        0.00416658124955
N           -1.28224789744791        1.04804178355773       -0.04870889473943
C           -2.22887713698663        2.15963962311078       -0.06505015156118
C           -1.82230854964313       -0.20243768111284       -0.04511333447014
O           -3.02000133504534       -0.39734023602408       -0.06084226414588
N           -0.93845840110438       -1.30450112353579       -0.03087691913177
C           -1.46623774094134       -2.64850813512598       -0.05536683350363
H            3.72042860167966        1.22111522400220        1.06454835528054
H            4.01127731471380        1.03649106182096       -0.67953374414198
H            2.69822277896992        2.09969403388561       -0.09699200561667
H            3.57957438698047       -1.65146457253182        0.04011546804746
H           -1.65053224380665        3.07588851945930        0.03581591111649
H           -2.81892655133978        2.20796924283729       -0.98261853479349
H           -2.91739642449623        2.04985119017278        0.77141998271616
H           -1.16064502963313       -3.19966379390215        0.83709627098879
H           -1.13504619775230       -3.18051074216375       -0.95087101163371
H           -2.55182886899849       -2.56597874259895       -0.07042183365255
H            1.37091893159332       -2.94663541073961       -0.01195594633959
25
 energy: -5.391160548025 xtb: 6.6.1 (8d0f1dd)
C            3.24366632793060        1.17360469053048        0.08005651579214
N            2.30406717012911        0.10213710705771        0.03336511380257
C            2.60501472049578       -1.24231840111609        0.02852873164286
N            1.42430314351091       -1.94513697068849        0.00162592348380
C            0.40100942031703       -1.06787285456130       -0.00171179269181
C            0.91346036057551        0.22220634777584        0.02258279766738
C            0.09972187706059        1.37815973073500       -0.00137503580864
O            0.47820810124597        2.55388344772004        0.01285445213920
N           -1.29675480010164        1.04660620829139       -0.06702893586113
C           -2.23851688962248        2.17309178211998       -0.08049484727659
C           -1.82890991426689       -0.20850847717104       -0.04344252530497
O           -3.02543757398219       -0.41137255205088       -0.05050616199959
N           -0.93840627914616       -1.30806678577056       -0.02330047947715
C           -1.46142770450083       -2.65435963218826       -0.04809663621614
H            3.72644215650695        1.22219382520107        1.06098669116296
H            4.01141239660453        1.03685332687536       -0.68447541439773
H            2.69882493895984        2.09840351448917       -0.09929958811187
H            3.58300885596555       -1.65600367613172        0.03310290970999
H           -1.64416356159142        3.06830859532509        0.09741878608440
H           -2.80464700292850        2.31814631210672       -1.00893108770389
H           -2.96083561772693        2.02459620859039        0.72182278786731
H           -1.15422528388338       -3.20657667808825        0.84335799338953
H           -1.12807378466663       -3.18556830220483       -0.94350505646562
H           -2.54707680272945       -2.57511809574735       -0.06353505535320
H            1.37334072165593       -2.95115411667975       -0.01447916400453
25
 energy: -4.050552984693 xtb: 6.6.1 (8d0f1dd)
C            3.24544840331626        1.17302526610597        0.07637139704116
N            2.30398926657978        0.10253068875044        0.03124252289305
C            2.60733878690704       -1.24420534456242        0.02628201392847
N            1.42587916065491       -1.94864513339048        0.00154630481187
C            0.40191120829435       -1.07170482559703        0.00109295212316
C            0.91025261461628        0.21989307282802        0.02485684723008
C            0.09213426863104        1.37285684626202       -0.00197814173172
O            0.47006758672046        2.54873316644013        0.02020825408588
N           -1.31039320869272        1.04623384167278       -0.08656980234608
C           -2.24671002708395        2.18988294389652       -0.09427294290845
C           -1.83475186347400       -0.21350644121020       -0.04046268219562
O           -3.02983405494522       -0.42474964620543       -0.03847858318715
N           -0.93859512030761       -1.31116654291073       -0.01606859241639
C           -1.45639810444364       -2.65993271247088       -0.04179423054884
H            3.73059332256637        1.22251821096121        1.05671797884203
H            4.01213340802985        1.03603597882314       -0.68935548826864
H            2.70052398115006        2.09736544053590       -0.10333247801399
H            3.58594607179686       -1.65939640075137        0.02785649219109
H           -1.63902646559811        3.05954063848620        0.15943622231449
H           -2.78640659547651        2.42966014797616       -1.02845677897865
H           -2.99989916839086        1.99790652881733        0.67179388407021
H           -1.14689265436547       -3.21166099864262        0.84935362496671
H           -1.11993658407673       -3.19077706302756       -0.93670467166205
H           -2.54219685642330       -2.58550444324811       -0.05799416465239
H            1.37695786877609       -2.95539714467875       -0.01606349997165
25
 energy: -2.112732101671 xtb: 6.6.1 (8d0f1dd)
C            3.24669136446445        1.17239933058809        0.07260106081534
N            2.30367600940091        0.10265199167638        0.02812621726115
C            2.60995185392394       -1.24613898152086        0.02337372422446
N            1.42778516286937       -1.95229243064517        0.00108739470672
C            0.40290271702905       -1.07591628909820        0.00398615334078
C            0.90700184158980        0.21693364228378        0.02750016269776
C            0.08492081583951        1.36772377580625       -0.00233612430689
O            0.46336706221627        2.54335397944081        0.02919634495748
N           -1.32346337030518        1.04832976844650       -0.10536633501286
C           -2.25643383596047        2.20978982928884       -0.10770617508849
C           -1.84002958220083       -0.21676109350464       -0.03658120158380
O           -3.03339151553963       -0.43747344147113       -0.02511196711207
N           -0.93878909734270       -1.31372158537844       -0.00850419229082
C           -1.45160085935632       -2.66519106747234       -0.03514768626704
H            3.73403609663123        1.22267533615529        1.05232597513926
H            4.01239758013862        1.03556734098227       -0.69432794690039
H            2.70181282817506        2.09632503682537       -0.10635806953097
H            3.58935782484556       -1.66221646690591        0.02114269011773
H           -1.64246537849717        3.05151055624305        0.22082435207146
H           -2.76433447582666        2.54022659789497       -1.04400089665259
H           -3.03850651949967        1.97508377367335        0.61884500163926
H           -1.14045232209972       -3.21661695785446        0.85590002037917
H           -1.11177626856632       -3.19631291796815       -0.92916290438475
H           -2.53749120377487       -2.59569686652499       -0.05273886105344
H            1.38208272924785       -2.95953753382059       -0.01922668421481
25
 energy: 0.162384034757 xtb: 6.6.1 (8d0f1dd)
C            3.24799551260301        1.16979967251352        0.06895217123394
N            2.30387010128774        0.10025446254299        0.02302615103185
C            2.61271369852328       -1.24954614153373        0.02027945461449
N            1.42990279689317       -1.95652122361767       -0.00019170681830
C            0.40414452344724       -1.08057270531417        0.00719078802482
C            0.90515284277950        0.21301035969422        0.03023210057485
C            0.07959490878501        1.36229408809223       -0.00200884545949
O            0.45783924584526        2.53780860977025        0.03821638942774
N           -1.33369968466537        1.04852993760751       -0.12233981058336
C           -2.26480886116747        2.21659732754528       -0.11630091714571
C           -1.84408604943069       -0.22034772727975       -0.03053763049593
O           -3.03580963072108       -0.44917994622390       -0.01142444153071
N           -0.93856803076009       -1.31652560970546       -0.00026734246454
C           -1.44669174154177       -2.67040787505230       -0.02852399324069
H            3.73683007912037        1.22192991571543        1.04827154841986
H            4.01324334837533        1.03386293922208       -0.69869639258725
H            2.70416763916628        2.09399645308515       -0.10946569512965
H            3.59291514739193       -1.66555297657223        0.01366624068961
H           -1.65650456517410        3.03688637231507        0.28396575594395
H           -2.74167580462985        2.64289478207671       -1.05093047814772
H           -3.07544361027716        1.94977978086380        0.56604372431522
H           -1.13349938846309       -3.22168770843494        0.86210373354979
H           -1.10369161679683       -3.20126503077408       -0.92196273910222
H           -2.53270150586796       -2.60604673316155       -0.04714744996212
H            1.38708217457577       -2.96394140672836       -0.02263294534904
25
 energy: 3.038509320739 xtb: 6.6.1 (8d0f1dd)
C            3.25097549194400        1.16446810692675        0.06460732956830
N            2.30547559062302        0.09465785576959        0.02182895690436
C            2.61658688709993       -1.25522644376604        0.01952836275494
N            1.43320366442367       -1.96216869868769        0.00152337239615
C            0.40651240672934       -1.08635553686487        0.01065452752954
C            0.90519267648780        0.20755598643360        0.03258523152666
C            0.07597397624370        1.35605654133957       -0.00255941692730
O            0.45435552087685        2.53118000708142        0.04646468314934
N           -1.34186115120498        1.04893901768472       -0.13832851109063
C           -2.27195747587506        2.21797746542509       -0.12124396518912
C           -1.84608497756180       -0.22338353777396       -0.02475829431210
O           -3.03612986282668       -0.46031537523187        0.00048235079164
N           -0.93721082592061       -1.31933717902254        0.00676827621846
C           -1.44165662330256       -2.67531238992891       -0.02457844237160
H            3.74461404714040        1.21988640159949        1.04164346603011
H            4.01383759324413        1.02954785346057       -0.70583029146382
H            2.70849647798530        2.08958154583242       -0.11193674052845
H            3.59770640400315       -1.67027496569998        0.00949570801149
H           -1.68238698021279        3.02244580011695        0.33892082270819
H           -2.72121113863571        2.74102171854334       -1.05176762957018
H           -3.11089137224208        1.92661576370045        0.51648715306778
H           -1.12712512573248       -3.22761775129221        0.86511928318174
H           -1.09640148280441       -3.20583465896822       -0.91787405004095
H           -2.52769553708617       -2.61512659499266       -0.04406334924687
H            1.39372601478754       -2.96972582419177       -0.01896349806823
25
 energy: 6.534913521424 xtb: 6.6.1 (8d0f1dd)
C            3.25233476382033        1.16008338574051        0.06383575435922
N            2.30669388110508        0.08986212234598        0.01938978868178
C            2.61936586974497       -1.26020488040984        0.01291985795731
N            1.43570610936506       -1.96664122000177       -0.00468026503045
C            0.40842013101209       -1.09130650089489        0.01235023311385
C            0.90591038886750        0.20269359346250        0.03253347464545
C            0.07300746640754        1.35006148803454       -0.00147455730344
O            0.45010170270407        2.52507095575979        0.05892032168446
N           -1.34683002188107        1.04776286417510       -0.15414832303172
C           -2.27715789575234        2.21559550734760       -0.13154195320864
C           -1.84738574433312       -0.22698764910700       -0.01845038865735
O           -3.03603656865176       -0.47026220652026        0.01659102032132
N           -0.93604714220055       -1.32216984858491        0.01575649436700
C           -1.43624138788092       -2.68031912403021       -0.01554151121543
H            3.74698345408335        1.21573832974065        1.04035594238652
H            4.01498878937825        1.02691293328412       -0.70742695906594
H            2.71081826165789        2.08599644407486       -0.11103086569595
H            3.60080440274024       -1.67450525147982       -0.00330928722858
H           -1.71512902964318        2.99959607507261        0.38543933571099
H           -2.69644390199263        2.83537631237806       -1.05511871607573
H           -3.14470852692904        1.90477216385569        0.45632773145412
H           -1.11992267041187       -3.23141562824549        0.87449948968578
H           -1.08683234716093       -3.21070456187607       -0.90762590008230
H           -2.52243313500886       -2.62549088655448       -0.03687190978874
H            1.39872473797152       -2.97389341267305       -0.02724370279415
25
 energy: 11.330750428848 xtb: 6.6.1 (8d0f1dd)
C            3.25387312608255        1.15604686628976        0.06048406257335
N            2.30924108455923        0.08485919163084        0.01672183503579
C            2.62262365819300       -1.26532030271157        0.01072532311598
N            1.43903971181884       -1.97060951489319       -0.00442738317531
C            0.41124833367489       -1.09596991999942        0.01482544142891
C            0.90905707797461        0.19800741583961        0.03124711359896
C            0.07636446443332        1.34620985561724        0.00056917992026
O            0.44925665070907        2.52136012617259        0.06800876638486
N           -1.34220423489534        1.04359916405442       -0.15265382353917
C           -2.27584993237673        2.21309780970318       -0.13319611461179
C           -1.84490521102123       -0.23295842215315       -0.01442321180143
O           -3.03326121307917       -0.47897322731787        0.02796326582000
N           -0.93348673599582       -1.32666503045374        0.02281177136540
C           -1.43052261516445       -2.68617370025174       -0.00929845455206
H            3.74866592061292        1.21535427693021        1.03673860290880
H            4.01698449718536        1.02122260975706       -0.71007305871469
H            2.71272087047620        2.08185486918064       -0.11776576659302
H            3.60425555174915       -1.67836841446012       -0.00887066150310
H           -1.73990823258653        2.97360457931056        0.43819129915336
H           -2.68108695882535        2.93385107254878       -1.04546608904437
H           -3.17190842949400        1.88613109343585        0.39833647013515
H           -1.11320121548723       -3.23658814224866        0.88093734204573
H           -1.07709939757689       -3.21565088837453       -0.90050473006067
H           -2.51693636122488       -2.63588061786797       -0.03282240872620
H            1.40460290144857       -2.97754868507099       -0.02489303832035
25
 energy: 17.480494216500 xtb: 6.6.1 (8d0f1dd)
C            3.25567687189728        1.15174517773755        0.05789690852484
N            2.31211634958603        0.07975010020994        0.01330427740655
C            2.62566639010530       -1.27010155170665        0.00661439096728
N            1.44315082983839       -1.97432829962957       -0.00436818825154
C            0.41436882063152       -1.10086986999406        0.01658796404980
C            0.91255856774263        0.19333459278010        0.02936039658928
C            0.08083026988250        1.34238939913507        0.00619035283480
O            0.44975978820429        2.51756830250994        0.07819957085545
N           -1.33799271298821        1.03960721058790       -0.14530026605771
C           -2.27448986145480        2.20969049017732       -0.13479448484243
C           -1.84230723357453       -0.23880535605471       -0.00746169127247
O           -3.03020365222697       -0.48736819436008        0.04086445662585
N           -0.93042498873539       -1.33116751976144        0.03034386841264
C           -1.42459046561108       -2.69203736726637       -0.00309506167588
H            3.75134453654737        1.21090849500598        1.03404967338234
H            4.01912017563901        1.01656484340435       -0.71216598308736
H            2.71456254124544        2.07765703943225       -0.12205994831532
H            3.60790311948809       -1.68121901992017       -0.01760706103242
H           -1.77005346839961        2.94741751854580        0.48418988896673
H           -2.66967191572796        3.03039363606868       -1.04214932057738
H           -3.19657408507271        1.87146914816657        0.33829790890704
H           -1.10572143405070       -3.24174193575881        0.88708200162020
H           -1.06828355890624       -3.22125352895196       -0.89351022415892
H           -2.51124217398618       -2.64617185682466       -0.02791264289063
H            1.41156949922449       -2.98099993023531       -0.02214022179936
25
 energy: 25.988879969185 xtb: 6.6.1 (8d0f1dd)
C            3.25635617776870        1.14910969446563        0.05530238458168
N            2.31324384434486        0.07741005192267        0.01010094111445
C            2.62679317578119       -1.27013447510228        0.00912974817055
N            1.44734580454688       -1.97663908804322       -0.00370831832864
C            0.41710599371397       -1.10556516315386        0.01640974572315
C            0.91429118569812        0.18935213443897        0.02746005647483
C            0.08114035050754        1.33800850641503        0.01240060773526
O            0.44947219690528        2.51279192658930        0.08573306670571
N           -1.33454603932992        1.03372715152131       -0.13485883455830
C           -2.27076994799533        2.19826319862861       -0.13118095061629
C           -1.83944560220889       -0.24723860729989        0.00099844089921
O           -3.02686630169802       -0.49696315571567        0.05693436445410
N           -0.92710766642142       -1.33669995763004        0.03639552844204
C           -1.41875623641368       -2.69849149566053        0.00243946417317
H            3.75280716259142        1.20634471649327        1.03137033792085
H            4.01951874304090        1.01341351857790       -0.71471020183118
H            2.71502617786247        2.07513992157959       -0.12440036902119
H            3.60937243915759       -1.68132236057634       -0.02912978567860
H           -1.80327039061207        2.91885850514182        0.52435284097488
H           -2.66221301753937        3.13631892595847       -1.04847831860749
H           -3.21954271181625        1.85319447092710        0.27331946509325
H           -1.09745102121004       -3.24788254570484        0.89194256790617
H           -1.06024268040533       -3.22584298542163       -0.88816489078380
H           -2.50569806965922       -2.65661100978896       -0.02265974245909
H            1.41909974870884       -2.98314486816872       -0.01834146102468
25
 energy: 37.454979589260 xtb: 6.6.1 (8d0f1dd)
C            3.25672942492574        1.14681481610491        0.05217678706530
N            2.31452604101578        0.07500927170958        0.00790059159047
C            2.62741952396791       -1.26942721511972        0.01321607835239
N            1.45144242377654       -1.97816458801864       -0.00215143088468
C            0.41982056754022       -1.10991737050308        0.01572871625777
C            0.91669348622007        0.18554244540794        0.02642025217630
C            0.08416898734055        1.33373953473823        0.02029124497587
O            0.45049310060477        2.50830596401082        0.09055726163461
N           -1.32832085423301        1.02590278834063       -0.11885098138219
C           -2.26092534036655        2.17688330815294       -0.11819300252565
C           -1.83530266557337       -0.25743454792169        0.00933458832501
O           -3.02251624704169       -0.50583643304022        0.07321193622028
N           -0.92314082760761       -1.34330117790452        0.03866299138018
C           -1.41248961719974       -2.70538427865393        0.00757950791470
H            3.75401087090043        1.20251980167755        1.02753587293087
H            4.01882818335373        1.00981534890346       -0.71833654111346
H            2.71503656010023        2.07295588590041       -0.12676484317813
H            3.60950638805139       -1.68031044912843       -0.04139471323392
H           -1.83832627931634        2.88793145090025        0.56789218775589
H           -2.66405020428963        3.26052342956390       -1.05742163850279
H           -3.23564778840916        1.82935383351848        0.20499217405289
H           -1.08859289314308       -3.25540425242322        0.89604731766669
H           -1.05127499984992       -3.22877549192179       -0.88386179569011
H           -2.49984063694817       -2.66742162776581       -0.01759166200293
H            1.42555616025890       -2.98446050615604       -0.01466440713917
25
 energy: 58.689837449430 xtb: 6.6.1 (8d0f1dd)
C            3.25708699035413        1.14404028515852        0.04823157602365
N            2.31699721235367        0.06928549077189        0.00668627431200
C            2.62637838811293       -1.26679145532374        0.01427924891402
N            1.45910166492591       -1.98030166947167       -0.00015945239843
C            0.42238079651528       -1.11641983670821        0.01501071323695
C            0.92045326549202        0.17981058264495        0.02676342276975
C            0.08774058030604        1.32753063341536        0.03281139916371
O            0.45398484700282        2.49928354782418        0.09739345312650
N           -1.31733003450174        1.01156599594714       -0.08243532007446
C           -2.23645737639095        2.11779027494271       -0.07754750173226
C           -1.82843059097616       -0.27564836185262        0.02129139363332
O           -3.01475461582833       -0.51713837749667        0.09041361830551
N           -0.91682319534520       -1.35383510876502        0.03826457147667
C           -1.40522863096691       -2.71505584008809        0.01186365033259
H            3.75327053847427        1.20023923394945        1.02316821907562
H            4.01863228972914        1.00635638042766       -0.72197582836477
H            2.71412657463755        2.06987916163520       -0.13055498567489
H            3.60960632887416       -1.67478671496213       -0.04865236566648
H           -1.87176298332986        2.86672535667741        0.58943510365714
H           -2.71286394535495        3.46906554776171       -1.10529630490342
H           -3.24509498789941        1.80354837599365        0.13622589828162
H           -1.07972067041909       -3.26290774101943        0.90074522171864
H           -1.04153821007664       -3.23477801628322       -0.87969707632923
H           -2.49309815358223       -2.67860138956322       -0.01395532085139
H            1.43441879978328       -2.98669323132223       -0.01008236347872
25
 energy: 73.363663873663 xtb: 6.6.1 (8d0f1dd)
C            3.25625182683310        1.14212001538822        0.04334591602847
N            2.31780368851936        0.06342684826621        0.00818704884656
C            2.62499633468761       -1.26158403699783        0.01153303815876
N            1.46706801549722       -1.98230434289565        0.00140014634148
C            0.42400988748349       -1.12136775618987        0.01913506402163
C            0.92535312924287        0.17414234844774        0.03241184886495
C            0.08814380886289        1.32188692747513        0.04298360532633
O            0.45658738910897        2.49028863884108        0.09582611837093
N           -1.30326490490678        0.99358396456610       -0.04724285524746
C           -2.21702526089984        2.05648054638315       -0.05072746827872
C           -1.81995442254710       -0.29303592454576        0.03576745462347
O           -3.00649823277190       -0.52792463999110        0.10671284249837
N           -0.90815898818447       -1.36593392671129        0.03824237264244
C           -1.39838213402182       -2.72450009717989        0.01592201165188
H            3.74871728575583        1.20050758155747        1.01878779983587
H            4.01887082853774        1.00283327864924       -0.72468556432443
H            2.71214408461620        2.06719983209980       -0.13782581896969
H            3.60948635862586       -1.66674692227630       -0.04890675917415
H           -1.89290649484482        2.87236004750319        0.53884195975974
H           -2.77014957517653        3.68181223140661       -1.15102292381592
H           -3.24660303921118        1.77762973434041        0.06894009570599
H           -1.07326442160439       -3.26636278532820        0.90770087588490
H           -1.03218929893982       -3.24187016134281       -0.87472354241911
H           -2.48684268520116       -2.68790996819717       -0.01155218573981
H            1.44316369102180       -2.98872628223968       -0.00652719387846
25
 energy: 80.613180897562 xtb: 6.6.1 (8d0f1dd)
C            3.25554849385846        1.14101739360080        0.03842941210905
N            2.31846287248637        0.06011500706306        0.01236771451534
C            2.62445728870270       -1.25714938277081        0.00570905637401
N            1.47365895650254       -1.98263438236794        0.00290333959291
C            0.42625001811412       -1.12289107454269        0.02568908121237
C            0.92945991921457        0.17272066934835        0.04104188188178
C            0.09192608403180        1.31913466322693        0.05237751393271
O            0.46336502573543        2.48825466796697        0.09196356820620
N           -1.29191012662200        0.98391966398088       -0.01822536410723
C           -2.20441789222506        2.01576311369836       -0.02612803514597
C           -1.81181181309285       -0.30534362211602        0.04859908863761
O           -2.99989686425324       -0.53434271354406        0.12015024772538
N           -0.90155498859696       -1.37390858166796        0.03896497496525
C           -1.39187919147006       -2.73125185619142        0.02260916250580
H            3.74836530670022        1.19992039810967        1.01252634349528
H            4.01611543789561        1.00130143198543       -0.73109481365640
H            2.70944748060351        2.06567402385085       -0.14051194001303
H            3.60980058068020       -1.65884054239084       -0.04977285906534
H           -1.90949647625186        2.89724209123660        0.47721766138289
H           -2.80879090362845        3.86266697037729       -1.17635490461038
H           -3.24335381574210        1.75140505295432       -0.00288081114242
H           -1.06558917547389       -3.26618193891187        0.91767890818337
H           -1.02265305381744       -3.24721791954891       -0.86665138141909
H           -2.48076841795559       -2.69887961722857       -0.00642077614873
H            1.44811951768321       -2.98916497006838       -0.00692097802507
25