      -----------------------------------------------------------      
     |                   =====================                   |     
     |                           x T B                           |     
     |                   =====================                   |     
     |                         S. Grimme                         |     
     |          Mulliken Center for Theoretical Chemistry        |     
     |                    University of Bonn                     |     
      -----------------------------------------------------------      

   * xtb version 6.6.1 (8d0f1dd) compiled by 'conda@1efc2f54142f' on 2023-08-01

   xtb is free software: you can redistribute it and/or modify it under
   the terms of the GNU Lesser General Public License as published by
   the Free Software Foundation, either version 3 of the License, or
   (at your option) any later version.
   
   xtb is distributed in the hope that it will be useful,
   but WITHOUT ANY WARRANTY; without even the implied warranty of
   MERCHANTABILITY or FITNESS FOR A PARTICULAR PURPOSE.  See the
   GNU Lesser General Public License for more details.
   
   Cite this work as:
   * C. Bannwarth, E. Caldeweyher, S. Ehlert, A. Hansen, P. Pracht,
     J. Seibert, S. Spicher, S. Grimme, WIREs Comput. Mol. Sci., 2020, 11,
     e01493. DOI: 10.1002/wcms.1493
   
   for GFN2-xTB:
   * C. Bannwarth, S. Ehlert and S. Grimme., J. Chem. Theory Comput., 2019,
     15, 1652-1671. DOI: 10.1021/acs.jctc.8b01176
   for GFN1-xTB:
   * S. Grimme, C. Bannwarth, P. Shushkov, J. Chem. Theory Comput., 2017,
     13, 1989-2009. DOI: 10.1021/acs.jctc.7b00118
   for GFN0-xTB:
   * P. Pracht, E. Caldeweyher, S. Ehlert, S. Grimme, ChemRxiv, 2019, preprint.
     DOI: 10.26434/chemrxiv.8326202.v1
   for GFN-FF:
   * S. Spicher and S. Grimme, Angew. Chem. Int. Ed., 2020, 59, 15665-15673.
     DOI: 10.1002/anie.202004239
   
   for ALPB and GBSA implicit solvation:
   * S. Ehlert, M. Stahn, S. Spicher, S. Grimme, J. Chem. Theory Comput.,
     2021, 17, 4250-4261. DOI: 10.1021/acs.jctc.1c00471
   
   for DFT-D4:
   * E. Caldeweyher, C. Bannwarth and S. Grimme, J. Chem. Phys., 2017,
     147, 034112. DOI: 10.1063/1.4993215
   * E. Caldeweyher, S. Ehlert, A. Hansen, H. Neugebauer, S. Spicher,
     C. Bannwarth and S. Grimme, J. Chem. Phys., 2019, 150, 154122.
     DOI: 10.1063/1.5090222
   * E. Caldeweyher, J.-M. Mewes, S. Ehlert and S. Grimme, Phys. Chem. Chem. Phys.
     2020, 22, 8499-8512. DOI: 10.1039/D0CP00502A
   
   for sTDA-xTB:
   * S. Grimme and C. Bannwarth, J. Chem. Phys., 2016, 145, 054103.
     DOI: 10.1063/1.4959605
   
   in the mass-spec context:
   * V. Asgeirsson, C. Bauer and S. Grimme, Chem. Sci., 2017, 8, 4879.
     DOI: 10.1039/c7sc00601b
   * J. Koopman and S. Grimme, ACS Omega 2019, 4, 12, 15120-15133.
     DOI: 10.1021/acsomega.9b02011
   
   for metadynamics refer to:
   * S. Grimme, J. Chem. Theory Comput., 2019, 155, 2847-2862
     DOI: 10.1021/acs.jctc.9b00143
   
   for SPH calculations refer to:
   * S. Spicher and S. Grimme, J. Chem. Theory Comput., 2021, 17, 1701-1714
     DOI: 10.1021/acs.jctc.0c01306
   
   with help from (in alphabetical order)
   P. Atkinson, C. Bannwarth, F. Bohle, G. Brandenburg, E. Caldeweyher
   M. Checinski, S. Dohm, S. Ehlert, S. Ehrlich, I. Gerasimov, C. Hölzer
   A. Katbashev, J. Koopman, C. Lavigne, S. Lehtola, F. März, M. Müller,
   F. Musil, H. Neugebauer, J. Pisarek, C. Plett, P. Pracht, F. Pultar,
   J. Seibert, P. Shushkov, S. Spicher, M. Stahn, M. Steiner, T. Strunk,
   J. Stückrath, T. Rose, and J. Unsleber
   
 * started run on 2024/06/05 at 19:58:12.854     

           -------------------------------------------------
          |                Calculation Setup                |
           -------------------------------------------------

          program call               : xtb xtbopt.xyz --opt crude --input .xc2 --gfn2
          hostname                   : n-62-31-11
          coordinate file            : xtbopt.xyz
          omp threads                :                     1

   ID    Z sym.   atoms
    1    6 C      1, 3, 5-7, 10, 11, 14
    2    7 N      2, 4, 9, 13
    3    8 O      8, 12
    4    1 H      15-25
########################################################################
[WARNING] Please study the warnings concerning your input carefully
-1- readin_getIntValue: could not parse ''
########################################################################

           -------------------------------------------------
          |                 G F N 2 - x T B                 |
           -------------------------------------------------

        Reference                      10.1021/acs.jctc.8b01176
      * Hamiltonian:
        H0-scaling (s, p, d)           1.850000    2.230000    2.230000
        zeta-weighting                 0.500000
      * Dispersion:
        s8                             2.700000
        a1                             0.520000
        a2                             5.000000
        s9                             5.000000
      * Repulsion:
        kExp                           1.500000    1.000000
        rExp                           1.000000
      * Coulomb:
        alpha                          2.000000
        third order                    shell-resolved
        anisotropic                    true
        a3                             3.000000
        a5                             4.000000
        cn-shift                       1.200000
        cn-exp                         4.000000
        max-rad                        5.000000

q/qsh data taken from xtbrestart
CAMM data taken from xtbrestart

          ...................................................
          :                      SETUP                      :
          :.................................................:
          :  # basis functions                  67          :
          :  # atomic orbitals                  67          :
          :  # shells                           39          :
          :  # electrons                        74          :
          :  max. iterations                   250          :
          :  Hamiltonian                  GFN2-xTB          :
          :  restarted?                       true          :
          :  GBSA solvation                  false          :
          :  PC potential                    false          :
          :  electronic temp.         5000.0000000     K    :
          :  accuracy                    1.0000000          :
          :  -> integral cutoff          0.2500000E+02      :
          :  -> integral neglect         0.1000000E-07      :
          :  -> SCF convergence          0.1000000E-05 Eh   :
          :  -> wf. convergence          0.1000000E-03 e    :
          :  Broyden damping             0.4000000          :
          ...................................................

 iter      E             dE          RMSdq      gap      omega  full diag
   1    -42.6895856 -0.426896E+02  0.216E-05    1.12       0.0  T
   2    -42.6895856  0.280309E-10  0.348E-05    1.12     574.9  T
   3    -42.6895856 -0.349445E-10  0.959E-06    1.12    2085.0  T

   *** convergence criteria satisfied after 3 iterations ***

         #    Occupation            Energy/Eh            Energy/eV
      -------------------------------------------------------------
         1        2.0000           -0.8995612             -24.4783
       ...           ...                  ...                  ...
        31        1.9940           -0.6086206             -16.5614
        32        1.9916           -0.6032513             -16.4153
        33        1.9888           -0.5985487             -16.2873
        34        1.9525           -0.5754620             -15.6591
        35        1.9276           -0.5685726             -15.4716
        36        1.8763           -0.5596663             -15.2293
        37        1.6911           -0.5435242             -14.7900 (HOMO)
        38        0.5747           -0.5022261             -13.6663 (LUMO)
        39        0.0061           -0.4249082             -11.5623
        40        0.0009           -0.3941911             -10.7265
        41        0.0002           -0.3733948             -10.1606
        42        0.0000           -0.3065177              -8.3408
       ...           ...                  ...                  ...
        67                         14.3683549             390.9828
      -------------------------------------------------------------
                  HL-Gap            0.0412981 Eh            1.1238 eV
             Fermi-level           -0.5166072 Eh          -14.0576 eV

 SCC (total)                   0 d,  0 h,  0 min,  0.024 sec
 SCC setup                      ...        0 min,  0.000 sec (  1.027%)
 Dispersion                     ...        0 min,  0.000 sec (  1.132%)
 classical contributions        ...        0 min,  0.000 sec (  0.337%)
 integral evaluation            ...        0 min,  0.005 sec ( 19.197%)
 iterations                     ...        0 min,  0.006 sec ( 23.862%)
 molecular gradient             ...        0 min,  0.013 sec ( 53.802%)
 printout                       ...        0 min,  0.000 sec (  0.600%)

         :::::::::::::::::::::::::::::::::::::::::::::::::::::
         ::                     SUMMARY                     ::
         :::::::::::::::::::::::::::::::::::::::::::::::::::::
         :: total energy             -39.865136251753 Eh    ::
         :: gradient norm             11.570072818621 Eh/a0 ::
         :: HOMO-LUMO gap              1.123778043117 eV    ::
         ::.................................................::
         :: SCC energy               -42.689585568947 Eh    ::
         :: -> isotropic ES            0.134038888855 Eh    ::
         :: -> anisotropic ES         -0.003550951091 Eh    ::
         :: -> anisotropic XC          0.016825737015 Eh    ::
         :: -> dispersion             -0.021309842710 Eh    ::
         :: repulsion energy           2.824452328909 Eh    ::
         :: add. restraining           0.000000000000 Eh    ::
         :: total charge               1.000000000444 e     ::
         :::::::::::::::::::::::::::::::::::::::::::::::::::::

      ----------------------------------------------------------- 
     |                   =====================                   |
     |                        A N C O P T                        |
     |                   =====================                   |
     |               Approximate Normal Coordinate               |
     |                Rational Function Optimizer                |
      ----------------------------------------------------------- 

          ...................................................
          :                      SETUP                      :
          :.................................................:
          :   optimization level             crude          :
          :   max. optcycles                   200          :
          :   ANC micro-cycles                  20          :
          :   degrees of freedom                69          :
          :.................................................:
          :   RF solver                   davidson          :
          :   write xtbopt.log                true          :
          :   linear?                        false          :
          :   energy convergence         0.5000000E-03 Eh   :
          :   grad. convergence          0.1000000E-01 Eh/α :
          :   maxmium RF displ.          1.0000000          :
          :   Hlow (freq-cutoff)         0.1000000E-01      :
          :   Hmax (freq-cutoff)         5.0000000          :
          :   S6 in model hess.         20.0000000          :
          ...................................................

generating ANC from model Hessian ...
Using Lindh-Hessian (1995)
 Shifting diagonal of input Hessian by    8.7201115894945409E-003
 Lowest  eigenvalues of input Hessian
    0.000000    0.000000    0.000000    0.000000    0.000000    0.000000
    0.010000    0.010606    0.011132    0.013515    0.014273    0.018748
    0.021274    0.022893    0.024870    0.025508    0.029607    0.033120
 Highest eigenvalues
    2.253465    2.283850    2.330074    2.534634    4.153685    8.093641


........................................................................
.............................. CYCLE    1 ..............................
........................................................................

 iter      E             dE          RMSdq      gap      omega  full diag
   1    -42.6895856 -0.426896E+02  0.697E-06    1.12       0.0  T
   2    -42.6895856  0.158451E-11  0.941E-06    1.12    2125.7  T
   3    -42.6895856 -0.279243E-11  0.350E-06    1.12    5711.8  T
     SCC iter.                  ...        0 min,  0.005 sec
     gradient                   ...        0 min,  0.013 sec
 * total energy  :   -39.8651363 Eh     change       -0.6821210E-12 Eh
   gradient norm :    11.5700728 Eh/α   predicted     0.0000000E+00 (-100.00%)
   displ. norm   :     0.8406382 α      lambda       -0.9717800E+01
   maximum displ.:     0.8217409 α      in ANC's #68, #58, #56, ...

........................................................................
.............................. CYCLE    2 ..............................
........................................................................

 iter      E             dE          RMSdq      gap      omega  full diag
   1    -42.7140129 -0.427140E+02  0.102E+00    1.41       0.0  T
   2    -42.7091576  0.485527E-02  0.763E-01    0.84       1.0  T
   3    -42.7051855  0.397209E-02  0.767E-01    1.67       1.0  T
   4    -42.7189870 -0.138015E-01  0.274E-01    1.21       1.0  T
   5    -42.7204328 -0.144579E-02  0.725E-02    1.18       1.0  T
   6    -42.7205710 -0.138208E-03  0.287E-02    1.20       1.0  T
   7    -42.7205792 -0.817539E-05  0.117E-02    1.19       1.7  T
   8    -42.7205802 -0.972744E-06  0.209E-03    1.19       9.6  T
   9    -42.7205802 -0.728107E-07  0.825E-04    1.19      24.2  T
  10    -42.7205802 -0.125436E-08  0.255E-04    1.19      78.6  T
     SCC iter.                  ...        0 min,  0.014 sec
     gradient                   ...        0 min,  0.013 sec
 * total energy  :   -42.1075168 Eh     change       -0.2242381E+01 Eh
   gradient norm :     0.2254801 Eh/α   predicted    -0.8292549E+01 ( 269.81%)
   displ. norm   :     0.3111972 α      lambda       -0.7198000E-01
   maximum displ.:     0.1187679 α      in ANC's #47, #37, #32, ...

........................................................................
.............................. CYCLE    3 ..............................
........................................................................

 iter      E             dE          RMSdq      gap      omega  full diag
   1    -42.6995994 -0.426996E+02  0.339E-01    1.19       0.0  T
   2    -42.7000255 -0.426084E-03  0.246E-01    1.21       1.0  T
   3    -42.6999226  0.102881E-03  0.131E-01    1.22       1.0  T
   4    -42.6997262  0.196396E-03  0.138E-01    1.15       1.0  T
   5    -42.7001655 -0.439350E-03  0.444E-02    1.24       1.0  T
   6    -42.7002343 -0.687829E-04  0.101E-02    1.20       2.0  T
   7    -42.7002353 -0.941553E-06  0.527E-03    1.21       3.8  T
   8    -42.7002355 -0.260153E-06  0.974E-04    1.21      20.5  T
   9    -42.7002355 -0.122368E-07  0.530E-04    1.21      37.7  T
     SCC iter.                  ...        0 min,  0.012 sec
     gradient                   ...        0 min,  0.013 sec
 * total energy  :   -42.1357898 Eh     change       -0.2827299E-01 Eh
   gradient norm :     0.0700807 Eh/α   predicted    -0.2909120E-01 (   2.89%)
   displ. norm   :     0.1966483 α      lambda       -0.1816470E-01
   maximum displ.:     0.1022106 α      in ANC's #32, #39, #34, ...

........................................................................
.............................. CYCLE    4 ..............................
........................................................................

 iter      E             dE          RMSdq      gap      omega  full diag
   1    -42.6925246 -0.426925E+02  0.280E-01    1.20       0.0  T
   2    -42.6924940  0.306614E-04  0.172E-01    1.23       1.0  T
   3    -42.6914593  0.103467E-02  0.204E-01    1.13       1.0  T
   4    -42.6924790 -0.101965E-02  0.701E-02    1.25       1.0  T
   5    -42.6926171 -0.138121E-03  0.977E-03    1.21       2.0  T
   6    -42.6926200 -0.296490E-05  0.558E-03    1.22       3.6  T
   7    -42.6926205 -0.436031E-06  0.212E-03    1.21       9.4  T
   8    -42.6926205 -0.555240E-07  0.417E-04    1.21      47.9  T
   9    -42.6926205 -0.162385E-08  0.225E-04    1.21      89.0  T
     SCC iter.                  ...        0 min,  0.012 sec
     gradient                   ...        0 min,  0.013 sec
 * total energy  :   -42.1411139 Eh     change       -0.5324105E-02 Eh
   gradient norm :     0.0639036 Eh/α   predicted    -0.4289520E-02 ( -19.43%)
   displ. norm   :     0.1268694 α      lambda       -0.6395614E-02
   maximum displ.:     0.0701685 α      in ANC's #2, #32, #34, ...

........................................................................
.............................. CYCLE    5 ..............................
........................................................................

 iter      E             dE          RMSdq      gap      omega  full diag
   1    -42.6890472 -0.426890E+02  0.169E-01    1.20       0.0  T
   2    -42.6889536  0.935461E-04  0.117E-01    1.24       1.0  T
   3    -42.6886296  0.324021E-03  0.137E-01    1.15       1.0  T
   4    -42.6890555 -0.425887E-03  0.463E-02    1.23       1.0  T
   5    -42.6891138 -0.582871E-04  0.690E-03    1.21       2.9  T
   6    -42.6891152 -0.144787E-05  0.307E-03    1.21       6.5  T
   7    -42.6891154 -0.149031E-06  0.152E-03    1.21      13.1  T
   8    -42.6891154 -0.137688E-07  0.279E-04    1.21      71.6  T
   9    -42.6891154 -0.676820E-09  0.153E-04    1.21     130.8  T
     SCC iter.                  ...        0 min,  0.012 sec
     gradient                   ...        0 min,  0.013 sec
 * total energy  :   -42.1424752 Eh     change       -0.1361352E-02 Eh
   gradient norm :     0.0617025 Eh/α   predicted    -0.1048533E-02 ( -22.98%)
   displ. norm   :     0.1121914 α      lambda       -0.3483530E-02
   maximum displ.:     0.0951960 α      in ANC's #2, #32, #14, ...

........................................................................
.............................. CYCLE    6 ..............................
........................................................................

 iter      E             dE          RMSdq      gap      omega  full diag
   1    -42.6883594 -0.426884E+02  0.857E-02    1.19       0.0  T
   2    -42.6883165  0.428860E-04  0.663E-02    1.22       1.0  T
   3    -42.6882988  0.176741E-04  0.641E-02    1.17       1.0  T
   4    -42.6883766 -0.778159E-04  0.254E-02    1.21       1.0  T
   5    -42.6883933 -0.166665E-04  0.600E-03    1.20       3.3  T
   6    -42.6883945 -0.118606E-05  0.173E-03    1.20      11.6  T
   7    -42.6883945 -0.585651E-07  0.789E-04    1.20      25.3  T
   8    -42.6883946 -0.167694E-08  0.212E-04    1.20      94.2  T
     SCC iter.                  ...        0 min,  0.011 sec
     gradient                   ...        0 min,  0.012 sec
 * total energy  :   -42.1431083 Eh     change       -0.6330358E-03 Eh
   gradient norm :     0.0545051 Eh/α   predicted    -0.4363179E-03 ( -31.08%)
   displ. norm   :     0.1483321 α      lambda       -0.3965934E-02
   maximum displ.:     0.1376304 α      in ANC's #2, #14, #1, ...

........................................................................
.............................. CYCLE    7 ..............................
........................................................................

 iter      E             dE          RMSdq      gap      omega  full diag
   1    -42.6887565 -0.426888E+02  0.615E-02    1.19       0.0  T
   2    -42.6887332  0.233489E-04  0.489E-02    1.21       1.0  T
   3    -42.6887378 -0.460178E-05  0.447E-02    1.17       1.0  T
   4    -42.6887722 -0.344197E-04  0.183E-02    1.20       1.1  T
   5    -42.6887808 -0.860394E-05  0.554E-03    1.19       3.6  T
   6    -42.6887818 -0.102123E-05  0.134E-03    1.19      14.9  T
   7    -42.6887819 -0.337148E-07  0.558E-04    1.19      35.9  T
   8    -42.6887819 -0.552149E-09  0.128E-04    1.19     155.7  T
     SCC iter.                  ...        0 min,  0.011 sec
     gradient                   ...        0 min,  0.013 sec
 * total energy  :   -42.1436719 Eh     change       -0.5636135E-03 Eh
   gradient norm :     0.0431034 Eh/α   predicted    -0.4059709E-03 ( -27.97%)
   displ. norm   :     0.1524703 α      lambda       -0.4476010E-02
   maximum displ.:     0.1433592 α      in ANC's #2, #1, #13, ...

........................................................................
.............................. CYCLE    8 ..............................
........................................................................

 iter      E             dE          RMSdq      gap      omega  full diag
   1    -42.6890364 -0.426890E+02  0.436E-02    1.19       0.0  T
   2    -42.6890350  0.143859E-05  0.276E-02    1.19       1.0  T
   3    -42.6890216  0.133835E-04  0.315E-02    1.18       1.0  T
   4    -42.6890350 -0.134613E-04  0.149E-02    1.20       1.3  T
   5    -42.6890428 -0.776345E-05  0.331E-03    1.19       6.0  T
   6    -42.6890432 -0.361242E-06  0.805E-04    1.19      24.8  T
   7    -42.6890432 -0.705570E-08  0.352E-04    1.19      56.8  T
     SCC iter.                  ...        0 min,  0.010 sec
     gradient                   ...        0 min,  0.013 sec
 * total energy  :   -42.1441480 Eh     change       -0.4760712E-03 Eh
   gradient norm :     0.0308607 Eh/α   predicted    -0.3294678E-03 ( -30.79%)
   displ. norm   :     0.1562672 α      lambda       -0.5315263E-02
   maximum displ.:     0.1438151 α      in ANC's #2, #13, #1, ...

........................................................................
.............................. CYCLE    9 ..............................
........................................................................

 iter      E             dE          RMSdq      gap      omega  full diag
   1    -42.6881986 -0.426882E+02  0.507E-02    1.20       0.0  T
   2    -42.6881976  0.101551E-05  0.322E-02    1.18       1.0  T
   3    -42.6881567  0.408692E-04  0.381E-02    1.22       1.0  T
   4    -42.6881992 -0.425390E-04  0.142E-02    1.19       1.4  T
   5    -42.6882039 -0.465663E-05  0.391E-03    1.19       5.1  T
   6    -42.6882044 -0.471272E-06  0.103E-03    1.19      19.4  T
   7    -42.6882044 -0.109680E-07  0.444E-04    1.19      45.1  T
   8    -42.6882044 -0.158799E-08  0.151E-04    1.19     132.7  T
     SCC iter.                  ...        0 min,  0.011 sec
     gradient                   ...        0 min,  0.012 sec
 * total energy  :   -42.1445628 Eh     change       -0.4148678E-03 Eh
   gradient norm :     0.0173727 Eh/α   predicted    -0.3062094E-03 ( -26.19%)
   displ. norm   :     0.0935851 α      lambda       -0.3029873E-02
   maximum displ.:     0.0767002 α      in ANC's #2, #13, #1, ...

........................................................................
.............................. CYCLE   10 ..............................
........................................................................

 iter      E             dE          RMSdq      gap      omega  full diag
   1    -42.6864007 -0.426864E+02  0.441E-02    1.21       0.0  T
   2    -42.6863877  0.129589E-04  0.355E-02    1.19       1.0  T
   3    -42.6863845  0.317508E-05  0.335E-02    1.22       1.0  T
   4    -42.6864098 -0.252885E-04  0.111E-02    1.20       1.8  T
   5    -42.6864119 -0.202953E-05  0.406E-03    1.20       4.9  T
   6    -42.6864124 -0.560430E-06  0.120E-03    1.20      16.7  T
   7    -42.6864124 -0.226910E-07  0.419E-04    1.20      47.7  T
   8    -42.6864124 -0.586745E-09  0.129E-04    1.20     154.5  T
     SCC iter.                  ...        0 min,  0.011 sec
     gradient                   ...        0 min,  0.013 sec
 * total energy  :   -42.1447525 Eh     change       -0.1897141E-03 Eh
   gradient norm :     0.0075879 Eh/α   predicted    -0.1477518E-03 ( -22.12%)
   displ. norm   :     0.0279058 α      lambda       -0.8080459E-03
   maximum displ.:     0.0141971 α      in ANC's #2, #14, #16, ...

   *** GEOMETRY OPTIMIZATION CONVERGED AFTER 10 ITERATIONS ***

------------------------------------------------------------------------
 total energy gain   :        -2.2796163 Eh    -1430.4808 kcal/mol
 total RMSD          :         0.2653406 a0        0.1404 Å
 total power (kW/mol):      -598.5131728 (step)********** (real)
------------------------------------------------------------------------

 ANCopt (total)                0 d,  0 h,  0 min,  0.298 sec
 optimizer setup                ...        0 min,  0.000 sec (  0.153%)
 model hessian                  ...        0 min,  0.005 sec (  1.736%)
 ANC generation                 ...        0 min,  0.001 sec (  0.261%)
 coordinate transformation      ...        0 min,  0.000 sec (  0.024%)
 single point calculation       ...        0 min,  0.286 sec ( 95.965%)
 optimization log               ...        0 min,  0.002 sec (  0.801%)
 hessian update                 ...        0 min,  0.000 sec (  0.042%)
 rational function              ...        0 min,  0.002 sec (  0.817%)

================
 final structure:
================
25
 xtb: 6.6.1 (8d0f1dd)
C            4.40535812230900        0.21721295595759       -0.27756641182669
N            3.04320010429471       -0.10184302278177       -0.11707666105927
C            2.57435207453564       -1.19120870909498        0.30556246003097
N            1.23995693168343       -1.46342472874207        0.42374402196165
C            0.18222762902833       -0.61829661597547        0.16444859301470
C            0.33096891265324        0.69923566523484       -0.12776304476405
C           -0.79030570672197        1.58446940791516       -0.34370677418672
O           -0.69620771249417        2.74962411429208       -0.64419254548293
N           -2.04628668305308        0.99392599139749       -0.14184743242379
C           -3.23318329083045        1.83175837780164       -0.25415995147636
C           -2.27606377056392       -0.30539652111970        0.15263103141231
O           -3.35395852057451       -0.78785103518399        0.33879983604761
N           -1.09130886624694       -1.17757894562454        0.21792259302391
C           -1.36103169646635       -2.47028979867181        0.30575369890506
H            5.08203813619274       -0.60072046697567        0.00130731653906
H            4.57734160870610        0.48918401241602       -1.32132390406388
H            4.63065533904779        1.09608424996619        0.33074824435136
H            3.20292395633795       -2.03713151862201        0.60835013036160
H           -2.90778384502291        2.85769176377551       -0.41137710683770
H           -3.84313596514928        1.49960927499682       -1.09434078460094
H           -3.82526026256421        1.75189991497945        0.65689676467929
H           -0.61023272429551       -3.23516141488741        0.26761910761503
H            1.30676894563105        1.14673090965575       -0.19558762501516
H           -2.40260039579121       -2.74397095827292        0.36537506812508
H            1.02199919345741       -2.36631436083101        0.82095499356679

 Bond Distances (Angstroems)
 ---------------------------
C1-N2=1.4082         C1-H15=1.0976        C1-H16=1.0922        C1-H17=1.0923        N2-C1=1.4082         N2-C3=1.2590         
C3-N2=1.2590         C3-N4=1.3670         C3-H18=1.0965        N4-C3=1.3670         N4-C5=1.3785         N4-H25=1.0102        
C5-N4=1.3785         C5-C6=1.3577         C5-N13=1.3920        C6-C5=1.3577         C6-C7=1.4448         C6-H23=1.0757        
C7-C6=1.4448         C7-O8=1.2070         C7-N9=1.4025         O8-C7=1.2070         N9-C7=1.4025         N9-C10=1.4572        
N9-C11=1.3519        C10-N9=1.4572        C10-H19=1.0877       C10-H20=1.0901       C10-H21=1.0895       C11-N9=1.3519        
C11-O12=1.1955       C11-N13=1.4726       O12-C11=1.1955       N13-C5=1.3920        N13-C11=1.4726       N13-C14=1.3235       
C14-N13=1.3235       C14-H22=1.0725       C14-H24=1.0786       H15-C1=1.0976        H16-C1=1.0922        H17-C1=1.0923        
H18-C3=1.0965        H19-C10=1.0877       H20-C10=1.0901       H21-C10=1.0895       H22-C14=1.0725       H23-C6=1.0757        
H24-C14=1.0786       H25-N4=1.0102        
 C  H  Rav=1.0873 sigma=0.0083  Rmin=1.0725  Rmax=1.0976    10
 C  C  Rav=1.4013 sigma=0.0436  Rmin=1.3577  Rmax=1.4448     2
 N  H  Rav=1.0102 sigma=0.0000  Rmin=1.0102  Rmax=1.0102     1
 N  C  Rav=1.3812 sigma=0.0589  Rmin=1.2590  Rmax=1.4726    10
 O  C  Rav=1.2012 sigma=0.0057  Rmin=1.1955  Rmax=1.2070     2

 selected bond angles (degree)
 --------------------
H15-C1-N2=113.49               H16-C1-N2=108.52               H16-C1-H15=109.35              H17-C1-N2=108.56               
H17-C1-H15=109.33              H17-C1-H16=107.42              C3-N2-C1=126.48                N4-C3-N2=124.39                
H18-C3-N2=123.14               H18-C3-N4=112.46               C5-N4-C3=127.64                H25-N4-C3=115.00               
H25-N4-C5=117.15               C6-C5-N4=123.46                N13-C5-N4=116.65               N13-C5-C6=119.89               
C7-C6-C5=122.80                H23-C6-C5=121.11               H23-C6-C7=116.08               O8-C7-C6=124.62                
N9-C7-C6=114.55                N9-C7-O8=120.81                C10-N9-C7=118.44               C11-N9-C7=126.03               
C11-N9-C10=115.53              H19-C10-N9=108.05              H20-C10-N9=109.88              H20-C10-H19=110.08             
H21-C10-N9=109.64              H21-C10-H19=110.65             H21-C10-H20=108.55             

 selected dihedral angles (degree)
 ---------------------------------
C3-N2-C1-H15=  0.41           C3-N2-C1-H16=122.18           C3-N2-C1-H17=238.63           N4-C3-N2-C1=181.14            
H18-C3-N2-C1=  0.25           C5-N4-C3-N2=357.36            C5-N4-C3-H18=178.16           H25-N4-C3-N2=182.85           
H25-N4-C3-H18=  3.65          C6-C5-N4-C3=352.82            C6-C5-N4-H25=167.23           N13-C5-N4-C3=173.04           
N13-C5-N4-H25=347.45          C7-C6-C5-N4=182.59            C7-C6-C5-N13=  2.37           H23-C6-C5-N4=  1.59           
H23-C6-C5-N13=181.36          O8-C7-C6-C5=182.33            O8-C7-C6-H23=  3.29           N9-C7-C6-C5=  3.95            
N9-C7-C6-H23=184.91           C10-N9-C7-C6=176.19           C10-N9-C7-O8=357.73           C11-N9-C7-C6=356.13           
C11-N9-C7-O8=177.68           H19-C10-N9-C7=355.42          H19-C10-N9-C11=175.47         H20-C10-N9-C7=115.54          
H20-C10-N9-C11=295.59         H21-C10-N9-C7=234.76          H21-C10-N9-C11= 54.81         
           -------------------------------------------------
          |                Final Singlepoint                |
           -------------------------------------------------

          ...................................................
          :                      SETUP                      :
          :.................................................:
          :  # basis functions                  67          :
          :  # atomic orbitals                  67          :
          :  # shells                           39          :
          :  # electrons                        74          :
          :  max. iterations                   250          :
          :  Hamiltonian                  GFN2-xTB          :
          :  restarted?                      false          :
          :  GBSA solvation                  false          :
          :  PC potential                    false          :
          :  electronic temp.         5000.0000000     K    :
          :  accuracy                    1.0000000          :
          :  -> integral cutoff          0.2500000E+02      :
          :  -> integral neglect         0.1000000E-07      :
          :  -> SCF convergence          0.1000000E-05 Eh   :
          :  -> wf. convergence          0.1000000E-03 e    :
          :  Broyden damping             0.4000000          :
          ...................................................

 iter      E             dE          RMSdq      gap      omega  full diag
   1    -42.6864124 -0.426864E+02  0.625E-05    1.20       0.0  T
   2    -42.6864124  0.814282E-11  0.489E-05    1.20     409.2  T
   3    -42.6864124 -0.350298E-11  0.425E-05    1.20     471.0  T

   *** convergence criteria satisfied after 3 iterations ***

         #    Occupation            Energy/Eh            Energy/eV
      -------------------------------------------------------------
         1        2.0000           -0.8980262             -24.4365
       ...           ...                  ...                  ...
        31        1.9940           -0.6074353             -16.5292
        32        1.9918           -0.6026553             -16.3991
        33        1.9893           -0.5982761             -16.2799
        34        1.9504           -0.5737475             -15.6125
        35        1.9296           -0.5680258             -15.4568
        36        1.8700           -0.5578104             -15.1788
        37        1.7221           -0.5444773             -14.8160 (HOMO)
        38        0.5503           -0.5002538             -13.6126 (LUMO)
        39        0.0056           -0.4226885             -11.5019
        40        0.0007           -0.3891831             -10.5902
        41        0.0002           -0.3716437             -10.1129
        42        0.0000           -0.2926814              -7.9643
       ...           ...                  ...                  ...
        67                          0.5584815              15.1971
      -------------------------------------------------------------
                  HL-Gap            0.0442235 Eh            1.2034 eV
             Fermi-level           -0.5155930 Eh          -14.0300 eV

 SCC (total)                   0 d,  0 h,  0 min,  0.023 sec
 SCC setup                      ...        0 min,  0.000 sec (  0.873%)
 Dispersion                     ...        0 min,  0.000 sec (  0.748%)
 classical contributions        ...        0 min,  0.000 sec (  0.326%)
 integral evaluation            ...        0 min,  0.004 sec ( 19.535%)
 iterations                     ...        0 min,  0.005 sec ( 20.306%)
 molecular gradient             ...        0 min,  0.013 sec ( 57.667%)
 printout                       ...        0 min,  0.000 sec (  0.494%)

         :::::::::::::::::::::::::::::::::::::::::::::::::::::
         ::                     SUMMARY                     ::
         :::::::::::::::::::::::::::::::::::::::::::::::::::::
         :: total energy             -42.144752533787 Eh    ::
         :: gradient norm              0.007588759564 Eh/a0 ::
         :: HOMO-LUMO gap              1.203383001492 eV    ::
         ::.................................................::
         :: SCC energy               -42.686412439179 Eh    ::
         :: -> isotropic ES            0.136227885760 Eh    ::
         :: -> anisotropic ES         -0.005495968173 Eh    ::
         :: -> anisotropic XC          0.017879477038 Eh    ::
         :: -> dispersion             -0.021120762188 Eh    ::
         :: repulsion energy           0.541667209437 Eh    ::
         :: add. restraining           0.000000000000 Eh    ::
         :: total charge               1.000000000914 e     ::
         :::::::::::::::::::::::::::::::::::::::::::::::::::::

           -------------------------------------------------
          |                Property Printout                |
           -------------------------------------------------

    * Orbital Energies and Occupations

         #    Occupation            Energy/Eh            Energy/eV
      -------------------------------------------------------------
         1        2.0000           -0.8980262             -24.4365
       ...           ...                  ...                  ...
        25        1.9998           -0.6652111             -18.1013
        26        1.9998           -0.6588944             -17.9294
        27        1.9996           -0.6512491             -17.7214
        28        1.9994           -0.6442801             -17.5318
        29        1.9991           -0.6379450             -17.3594
        30        1.9984           -0.6285311             -17.1032
        31        1.9940           -0.6074353             -16.5292
        32        1.9918           -0.6026553             -16.3991
        33        1.9893           -0.5982761             -16.2799
        34        1.9504           -0.5737475             -15.6125
        35        1.9296           -0.5680258             -15.4568
        36        1.8700           -0.5578104             -15.1788
        37        1.7221           -0.5444773             -14.8160 (HOMO)
        38        0.5503           -0.5002538             -13.6126 (LUMO)
        39        0.0056           -0.4226885             -11.5019
        40        0.0007           -0.3891831             -10.5902
        41        0.0002           -0.3716437             -10.1129
        42        0.0000           -0.2926814              -7.9643
        43                         -0.2197761              -5.9804
        44                         -0.1752650              -4.7692
        45                         -0.1454538              -3.9580
        46                         -0.0924581              -2.5159
        47                         -0.0702590              -1.9118
        48                         -0.0379368              -1.0323
       ...                                ...                  ...
        67                          0.5584815              15.1971
      -------------------------------------------------------------
                  HL-Gap            0.0442235 Eh            1.2034 eV
             Fermi-level           -0.5155930 Eh          -14.0300 eV

     #   Z          covCN         q      C6AA      α(0)
     1   6 C        3.702    -0.050    21.632     6.651
     2   7 N        1.827    -0.143    24.866     7.389
     3   6 C        2.772     0.119    25.375     8.250
     4   7 N        2.697    -0.102    23.247     7.161
     5   6 C        2.833     0.126    25.236     8.232
     6   6 C        2.907    -0.094    30.371     9.036
     7   6 C        2.766     0.279    22.283     7.731
     8   8 O        0.859    -0.310    19.958     5.990
     9   7 N        2.739    -0.060    22.408     7.031
    10   6 C        3.711    -0.067    21.916     6.690
    11   6 C        2.736     0.316    21.625     7.614
    12   8 O        0.859    -0.332    20.365     6.050
    13   7 N        2.742     0.017    20.958     6.799
    14   6 C        2.805    -0.027    28.656     8.770
    15   1 H        0.924     0.079     1.985     2.203
    16   1 H        0.924     0.111     1.688     2.032
    17   1 H        0.924     0.110     1.694     2.035
    18   1 H        0.924     0.075     2.031     2.229
    19   1 H        0.925     0.123     1.588     1.971
    20   1 H        0.925     0.105     1.739     2.062
    21   1 H        0.925     0.106     1.728     2.056
    22   1 H        0.926     0.110     1.700     2.039
    23   1 H        0.926     0.142     1.449     1.883
    24   1 H        0.926     0.152     1.379     1.836
    25   1 H        0.860     0.215     1.034     1.593

 Mol. C6AA /au·bohr⁶  :       6655.016028
 Mol. C8AA /au·bohr⁸  :     153057.471857
 Mol. α(0) /au        :        125.332823


Wiberg/Mayer (AO) data.
largest (>0.10) Wiberg bond orders for each atom

 ---------------------------------------------------------------------------
     #   Z sym  total        # sym  WBO       # sym  WBO       # sym  WBO
 ---------------------------------------------------------------------------
     1   6 C    3.909 --     2 N    1.061    15 H    0.937    17 H    0.935
                            16 H    0.935
     2   7 N    2.990 --     3 C    1.741     1 C    1.061
     3   6 C    3.931 --     2 N    1.741     4 N    1.170    18 H    0.914
     4   7 N    3.465 --     3 C    1.170     5 C    1.140    25 H    0.914
     5   6 C    3.912 --     6 C    1.531     4 N    1.140    13 N    1.085
     6   6 C    3.804 --     5 C    1.531     7 C    1.090    23 H    0.930
     7   6 C    3.925 --     8 O    1.710     6 C    1.090     9 N    1.051
     8   8 O    1.980 --     7 C    1.710     9 N    0.109
     9   7 N    3.549 --    11 C    1.206     7 C    1.051    10 C    0.965
                            12 O    0.155     8 O    0.109
    10   6 C    3.890 --     9 N    0.965    19 H    0.963    21 H    0.958
                            20 H    0.956
    11   6 C    3.932 --    12 O    1.730     9 N    1.206    13 N    0.909
    12   8 O    2.061 --    11 C    1.730     9 N    0.155
    13   7 N    3.614 --    14 C    1.430     5 C    1.085    11 C    0.909
    14   6 C    3.461 --    13 N    1.430    22 H    0.957    24 H    0.948
    15   1 H    0.944 --     1 C    0.937
    16   1 H    0.968 --     1 C    0.935
    17   1 H    0.969 --     1 C    0.935
    18   1 H    0.953 --     3 C    0.914
    19   1 H    0.981 --    10 C    0.963
    20   1 H    0.975 --    10 C    0.956
    21   1 H    0.977 --    10 C    0.958
    22   1 H    0.987 --    14 C    0.957
    23   1 H    0.977 --     6 C    0.930
    24   1 H    0.976 --    14 C    0.948
    25   1 H    0.953 --     4 N    0.914
 ---------------------------------------------------------------------------

Topologies differ in total number of bonds
Writing topology from bond orders to xtbtopo.mol

molecular dipole:
                 x           y           z       tot (Debye)
 q only:        1.375      -1.812       0.359
   full:        1.683      -2.442       0.542       7.662
molecular quadrupole (traceless):
                xx          xy          yy          xz          yz          zz
 q only:       22.763      -8.239      -3.367       1.381      -2.529     -19.396
  q+dip:       21.028     -10.579      -2.715       2.618      -2.651     -18.313
   full:       20.256     -10.823      -4.529       2.742      -1.541     -15.727

           -------------------------------------------------
          |                Geometry Summary                 |
           -------------------------------------------------

      molecular mass/u    :      195.1988581
   center of mass at/Å    :       -0.2279032       0.0087018      -0.0020220
  moments of inertia/u·Å² :        0.4186291E+03   0.1084249E+04   0.1492194E+04
rotational constants/cm⁻¹ :        0.4026866E-01   0.1554776E-01   0.1129721E-01

 * 23 selected distances

     #   Z          #   Z                                           value/Å
     1   6 C        2   7 N                                       1.4082005
     2   7 N        3   6 C                                       1.2590315
     3   6 C        4   7 N                                       1.3669964
     4   7 N        5   6 C                                       1.3785018
     5   6 C        6   6 C                                       1.3577199
     7   6 C        8   8 O                                       1.2069515
     7   6 C        9   7 N                                       1.4024897
     9   7 N       10   6 C                                       1.4571552 (max)
     9   7 N       11   6 C                                       1.3519447
    11   6 C       12   8 O                                       1.1955244
     5   6 C       13   7 N                                       1.3919597
    13   7 N       14   6 C                                       1.3234676
     1   6 C       15   1 H                                       1.0975799
     1   6 C       16   1 H                                       1.0922346
     1   6 C       17   1 H                                       1.0923463
     3   6 C       18   1 H                                       1.0965257
    10   6 C       19   1 H                                       1.0877231
    10   6 C       20   1 H                                       1.0900777
    10   6 C       21   1 H                                       1.0894756
    14   6 C       22   1 H                                       1.0724655
     6   6 C       23   1 H                                       1.0756570
    14   6 C       24   1 H                                       1.0785739
     4   7 N       25   1 H                                       1.0101940 (min)

 * 5 distinct bonds (by element types)

   Z      Z             #   av. dist./Å        max./Å        min./Å
   1 H    6 C          10     1.0872659     1.0975799     1.0724655
   6 C    6 C           1     1.3577199     1.3577199     1.3577199
   1 H    7 N           1     1.0101940     1.0101940     1.0101940
   6 C    7 N           9     1.3710830     1.4571552     1.2590315
   6 C    8 O           2     1.2012379     1.2069515     1.1955244


optimized geometry written to: xtbopt.xyz


           -------------------------------------------------
          | TOTAL ENERGY              -42.144752533787 Eh   |
          | GRADIENT NORM               0.007588759564 Eh/α |
          | HOMO-LUMO GAP               1.203383001492 eV   |
           -------------------------------------------------

------------------------------------------------------------------------
 * finished run on 2024/06/05 at 19:58:13.239     
------------------------------------------------------------------------
 total:
 * wall-time:     0 d,  0 h,  0 min,  0.384 sec
 *  cpu-time:     0 d,  0 h,  0 min,  0.355 sec
 * ratio c/w:     0.924 speedup
 SCF:
 * wall-time:     0 d,  0 h,  0 min,  0.024 sec
 *  cpu-time:     0 d,  0 h,  0 min,  0.024 sec
 * ratio c/w:     1.000 speedup
 ANC optimizer:
 * wall-time:     0 d,  0 h,  0 min,  0.327 sec
 *  cpu-time:     0 d,  0 h,  0 min,  0.320 sec
 * ratio c/w:     0.978 speedup

