25
 energy: -43.830658724238 gnorm: 0.082976476976 xtb: 6.6.1 (8d0f1dd)
C            3.23882720893647        1.16782490121380        0.09867540656688
N            2.30386687486152        0.09297595079494        0.04304290224058
C            2.59376935728750       -1.23094712268406        0.02789895424220
N            1.43068177339188       -1.94702826631185       -0.00833476150139
C            0.40402474396607       -1.06367676939784       -0.00748833763633
C            0.92092294672357        0.23278491493746        0.02067992955851
C            0.06932345097524        1.43294795512923       -0.02229011821586
O            0.40116515160632        2.62329390567422       -0.04485487561419
N           -1.26719550569234        1.04325440272770       -0.01741455743400
C           -2.17616248497631        2.19008834371102       -0.05633477670446
C           -1.82168595429532       -0.21083175125855       -0.02831926152007
O           -3.01289237174235       -0.39504513792772       -0.05257468900486
N           -0.93160823923319       -1.31594508450555       -0.03277143660586
C           -1.46353693141105       -2.66023094707142       -0.06799170204521
H            3.69499387847262        1.22059980887558        1.08987948519882
H            4.02136130593400        1.02438705629645       -0.64637704178493
H            2.69554630941578        2.08543272309509       -0.09967075015194
H            3.57404941921608       -1.65305013526092        0.03702955918477
H           -1.65005207227759        3.19627624568597       -0.15963233563505
H           -2.87676624457015        2.04925482515564       -0.88278107601444
H           -2.79048501326332        2.17247192173914        0.82871276679654
H           -1.16008525424966       -3.21505889638705        0.82069268208581
H           -1.13944583963080       -3.18312762668972       -0.96784036645070
H           -2.55012065464418       -2.57759840164637       -0.07767149170087
H            1.37190436136215       -2.95108632146851       -0.02859975714296
25
 energy: -43.834946920765 gnorm: 0.037437858297 xtb: 6.6.1 (8d0f1dd)
C            3.24367211637637        1.17719484179932        0.09943688032019
N            2.30755975671724        0.10270776810196        0.03898227845030
C            2.60095684656328       -1.23730733754476        0.02750513586068
N            1.41870810553881       -1.93763442977750       -0.00616117725311
C            0.39956539348634       -1.05002539816534       -0.00878357035852
C            0.92200456924982        0.23641872440124        0.01782948284860
C            0.09188513590280        1.40945484205976       -0.01996288791996
O            0.45231947668193        2.59000644128141       -0.04305963384069
N           -1.27059864085226        1.04854314158588       -0.02407437709048
C           -2.20887933070573        2.16657665192513       -0.05715827021001
C           -1.82776541230775       -0.19863981352453       -0.03718121639972
O           -3.02586531697787       -0.38715247290713       -0.05300136375539
N           -0.93868189195649       -1.29985349678183       -0.03420614410427
C           -1.46515563794689       -2.64610215460632       -0.06612156939698
H            3.70470923195074        1.23207584193186        1.09036067345211
H            4.02706577589379        1.03587983549144       -0.64734660810374
H            2.70030743646706        2.09828617208336       -0.09618186875377
H            3.57693712883231       -1.66427542384172        0.03622036349281
H           -1.64227933486587        3.10825199663496       -0.15274431866436
H           -2.88854669458985        2.05111821298604       -0.90316347818815
H           -2.80337923985187        2.17755164193929        0.85231050944821
H           -1.15773802182458       -3.20528508722077        0.82065564984299
H           -1.13623517832388       -3.17214852243316       -0.96508968117701
H           -2.55164336653642       -2.56703366077927       -0.07766398646053
H            1.35147730924190       -2.94064182021267       -0.02573647132818
25
 energy: -43.836328588941 gnorm: 0.016029189629 xtb: 6.6.1 (8d0f1dd)
C            3.23939756251564        1.17365551086823        0.09992759890328
N            2.30132632567150        0.10582263255047        0.03814746888549
C            2.60279271330664       -1.23805540364892        0.02895870108600
N            1.41982471189147       -1.93825811932705       -0.00710761767187
C            0.39971253579758       -1.05207276807164       -0.00737960300103
C            0.91503804290840        0.23943897997901        0.01802466429379
C            0.09233070464990        1.40719714568461       -0.01873055509679
O            0.43409407285282        2.59465404616289       -0.04524809369648
N           -1.27442002485706        1.05225823183913       -0.02327466057311
C           -2.19665781051372        2.18550704758612       -0.06082058055275
C           -1.82426562357245       -0.19980745925659       -0.03092440827616
O           -3.02216848645749       -0.39545252795299       -0.04807177225261
N           -0.93828183393618       -1.30426667572417       -0.03159228861006
C           -1.46155940618133       -2.65423943494304       -0.06693932758692
H            3.69673937713790        1.22405731389786        1.09295583287046
H            4.02247147741793        1.02471827653851       -0.64621440569521
H            2.69557723311828        2.09371219762520       -0.09918617882441
H            3.57925740908163       -1.65758524032271        0.03711582515082
H           -1.65776749447321        3.14058684892313       -0.15561156717416
H           -2.87600096135438        2.05991507324492       -0.89910635135446
H           -2.79063032950501        2.18975244755885        0.84750284912010
H           -1.15467909149488       -3.21856432160768        0.81777852628277
H           -1.13494263490952       -3.18257735730120       -0.96704380952792
H           -2.54805365276341       -2.57978473024788       -0.07745368391980
H            1.36126539983186       -2.94264521962841       -0.03004221206797
25
 energy: -43.836352319361 gnorm: 0.011154803954 xtb: 6.6.1 (8d0f1dd)
C            3.24382663549773        1.17181615710109        0.09860582454807
N            2.30300553490521        0.10606636311255        0.03737372859000
C            2.60432648134208       -1.24045328106238        0.02966640903668
N            1.42104356151578       -1.93955338238813       -0.00441477076607
C            0.40244733913741       -1.05393979618298       -0.00806166775824
C            0.91551520896069        0.24178526133305        0.01765729557694
C            0.09478657600053        1.40847066431396       -0.01797575953005
O            0.41811970062729        2.60310752767087       -0.04061613591157
N           -1.27452505781885        1.05082667331182       -0.02510349865423
C           -2.19470706717836        2.18319804487522       -0.06014303517378
C           -1.81971132271758       -0.20103584763773       -0.03654630695858
O           -3.01692150654381       -0.39899331897916       -0.05826645047437
N           -0.93594090138100       -1.30473682059326       -0.03445055867499
C           -1.46785505762346       -2.64912954512487       -0.06624987575656
H            3.70496737000783        1.22430104068299        1.08942111942350
H            4.02593019346262        1.02914225733650       -0.64958321065281
H            2.70023661891784        2.09221997504893       -0.09713774038545
H            3.57961914969121       -1.65794705265593        0.03596613997007
H           -1.65458745626902        3.14371252980657       -0.15042247056592
H           -2.87852877062717        2.04578404053777       -0.89183045983160
H           -2.79515182680598        2.16765785435380        0.84297561757612
H           -1.16616043522711       -3.20670856040309        0.82414263643753
H           -1.14245502145997       -3.17955398838614       -0.96545584675482
H           -2.55376775925047       -2.56304880323491       -0.07881567568135
H            1.36688802899946       -2.94502149840989       -0.02507095691753
25
 energy: -43.836551606051 gnorm: 0.006401345234 xtb: 6.6.1 (8d0f1dd)
C            3.24062559332453        1.17200505230406        0.10067495775512
N            2.30147144261130        0.10452051038239        0.03791555915505
C            2.60127328534349       -1.24213659192876        0.02942410547678
N            1.41728103107912       -1.93971958748618       -0.00702679891707
C            0.39971830704181       -1.05449735333778       -0.00803989832386
C            0.91406196717975        0.24066839817345        0.01756731795316
C            0.09689423335752        1.40741696906831       -0.02000775470000
O            0.42343062680145        2.60109564361102       -0.04574639959157
N           -1.27567205552583        1.05166337486572       -0.02243750497721
C           -2.19498747874660        2.18468615409459       -0.06107706945324
C           -1.82212391424369       -0.19939543200425       -0.02992130004831
O           -3.01999973036642       -0.39464751269121       -0.04780408694805
N           -0.93872105821701       -1.30452350432197       -0.03217590983933
C           -1.46358313741349       -2.65178770628032       -0.06716920690049
H            3.69895297043582        1.22725954370934        1.09250371912294
H            4.02471669833750        1.03087385001396       -0.64546194526878
H            2.69692034245056        2.09225341434429       -0.09710486507905
H            3.57638725078418       -1.65985388515281        0.03565196223147
H           -1.64425065253585        3.13860774248690       -0.15829007815283
H           -2.88090654832572        2.05128078967618       -0.89323086689213
H           -2.79514649284649        2.18066219636947        0.84329535586234
H           -1.15352625808547       -3.21167249964898        0.81878627665218
H           -1.13500945001869       -3.17574197767875       -0.96868599437958
H           -2.55007476633633       -2.57601182035661       -0.07666075360978
H            1.36266801007747       -2.94503927378541       -0.02931447041673
25
 energy: -43.836552732989 gnorm: 0.005731006707 xtb: 6.6.1 (8d0f1dd)
C            3.24099708270448        1.17249529298843        0.09848872254124
N            2.30254785961761        0.10488933485512        0.03795461199793
C            2.60254343411104       -1.24067991824340        0.03065491426991
N            1.41863330130843       -1.93814280077752       -0.00566464960374
C            0.40021204778687       -1.05449006612295       -0.00780960578217
C            0.91490653431459        0.24021042056546        0.01826179817352
C            0.09948622130585        1.40648485081669       -0.01832482776045
O            0.43189053108120        2.59782835054148       -0.04187289084430
N           -1.27569684934907        1.05235909940535       -0.02396458820406
C           -2.19830618273804        2.18395033061141       -0.05926041170941
C           -1.82220516350313       -0.19883330901830       -0.03523481706734
O           -3.02038046975168       -0.39388927875899       -0.05396705934582
N           -0.93849939496423       -1.30462514360230       -0.03352173947170
C           -1.46352010435472       -2.65309639294870       -0.06637898104919
H            3.69976316788364        1.22609548129217        1.09030333663533
H            4.02353927608546        1.02617411244327       -0.64834521405467
H            2.69832442807194        2.09370467562997       -0.10052588514545
H            3.57894951720308       -1.65714266886379        0.03730524442336
H           -1.65670967184043        3.14027992771611       -0.15062710721154
H           -2.87973425020122        2.05876572921131       -0.89756054585594
H           -2.79705390178795        2.18206410009012        0.84647228504015
H           -1.15868262215148       -3.21425756882536        0.82060504894949
H           -1.13519982905235       -3.18262584221684       -0.96464095787388
H           -2.54968941499450       -2.57638554461898       -0.07911629425023
H            1.36428466937756       -2.94316667774311       -0.02756603609000
25
 energy: -43.836609009346 gnorm: 0.002677978492 xtb: 6.6.1 (8d0f1dd)
C            3.24147073322362        1.17254792007348        0.10060163379560
N            2.30286552793841        0.10518965890343        0.03769958417903
C            2.60273155942098       -1.24061393965152        0.02899170484711
N            1.41904938704404       -1.93792932069811       -0.00692248335914
C            0.40078190129879       -1.05443732019565       -0.00797966164458
C            0.91489687257149        0.24104142045787        0.01784822761755
C            0.09878808201722        1.40680859641858       -0.01948471641983
O            0.42655871042165        2.59946908948605       -0.04503845516084
N           -1.27612390898556        1.05102692471756       -0.02309899115192
C           -2.19652929466702        2.18276927545091       -0.06081467380480
C           -1.82188612396396       -0.19995703082775       -0.03172718955801
O           -3.01978238867236       -0.39638520642996       -0.05000879405569
N           -0.93785036870967       -1.30461006991362       -0.03241937840941
C           -1.46499751067201       -2.65148020143231       -0.06660221418758
H            3.70036547805952        1.22431912792177        1.09247048800301
H            4.02431911608028        1.02897493442905       -0.64648467835405
H            2.69799184046924        2.09365835781251       -0.09596557333183
H            3.57903022584889       -1.65715986394582        0.03500100507028
H           -1.65334472801965        3.13888339975719       -0.15677306159109
H           -2.87944953419476        2.05154233351432       -0.89631573000546
H           -2.79366400128057        2.18076456611541        0.84567522564350
H           -1.15918769382940       -3.21318845347411        0.81967871326313
H           -1.13962664626970       -3.17900528491339       -0.96716781046629
H           -2.55105044980253       -2.57107980060321       -0.07679642885119
H            1.36504343083596       -2.94318261854603       -0.02870239135648
25
 energy: -43.836589668367 gnorm: 0.003739369067 xtb: 6.6.1 (8d0f1dd)
C            3.24110813129249        1.17183207927989        0.09855182681346
N            2.30217906347200        0.10431606699316        0.03765464369853
C            2.60097542283676       -1.24204783436640        0.03088852069112
N            1.41723748310769       -1.93861864875825       -0.00527943524998
C            0.39983081268229       -1.05440171175434       -0.00789355350944
C            0.91399328838341        0.24152130254343        0.01785628335417
C            0.09808929564750        1.40766016824858       -0.01878180565398
O            0.42258493388394        2.60139620006152       -0.04260154436122
N           -1.27700990591174        1.05111483282635       -0.02334916410110
C           -2.19505797838656        2.18400158969661       -0.05961687455383
C           -1.82248605214038       -0.19959595695263       -0.03365163281591
O           -3.02021494517941       -0.39600125099401       -0.05305459407700
N           -0.93853129583978       -1.30421530017724       -0.03346786596819
C           -1.46338507451730       -2.65153183480976       -0.06732398546395
H            3.69989075918098        1.22767175726952        1.09019353033376
H            4.02462300404497        1.02855233813895       -0.64787332803090
H            2.69709790204768        2.09182507221835       -0.10051039948227
H            3.57666779688398       -1.65956723385272        0.03775976070343
H           -1.64683594797108        3.13943309229787       -0.15246216941733
H           -2.87900010060279        2.05340377880775       -0.89402655923663
H           -2.79472793274138        2.17809160209706        0.84476032407785
H           -1.15563614597645       -3.21006794226147        0.82027411639175
H           -1.13394653633687       -3.17774643239967       -0.96723223704866
H           -2.54981720714516       -2.57488823145277       -0.07882966794400
H            1.36277144544812       -2.94417100827314       -0.02631983843867
25
 energy: -43.836623535367 gnorm: 0.001002240385 xtb: 6.6.1 (8d0f1dd)
C            3.24140317396199        1.17214391736281        0.09998094204528
N            2.30282428999560        0.10442464750297        0.03776599472797
C            2.60195797828009       -1.24151602564785        0.02949159793297
N            1.41837664407064       -1.93845626181764       -0.00679659767198
C            0.40038820059420       -1.05475900763824       -0.00804348737255
C            0.91461963266884        0.24103731965080        0.01790191183611
C            0.09933331170600        1.40730764633177       -0.01911490595460
O            0.42636543652027        2.60013742493594       -0.04371844799677
N           -1.27642621397850        1.05157292412376       -0.02337269359281
C           -2.19655286898223        2.18355378535208       -0.06039388613826
C           -1.82195023639805       -0.19921894493992       -0.03285509623438
O           -3.01980066832268       -0.39523113578488       -0.05142078034863
N           -0.93822682875057       -1.30441880255971       -0.03282896056642
C           -1.46422148637557       -2.65180155129839       -0.06637191392497
H            3.70027106876608        1.22586580169565        1.09171955078826
H            4.02459816737916        1.02897527607218       -0.64678248242983
H            2.69793516386557        2.09290308136173       -0.09761195944819
H            3.57812008371886       -1.65838241183700        0.03559039423284
H           -1.65191546299796        3.13988032460285       -0.15456701472100
H           -2.88013406879929        2.05340150948570       -0.89548116488945
H           -2.79590657567548        2.17981613549299        0.84444879622467
H           -1.15768742977825       -3.21205604411254        0.82058432514434
H           -1.13664034689132       -3.17926711641897       -0.96616931043505
H           -2.55052693572528       -2.57403588246428       -0.07748054848397
H            1.36419618731081       -2.94391011502515       -0.02880991201255
25
 energy: -43.836605628372 gnorm: 0.002476850941 xtb: 6.6.1 (8d0f1dd)
C            3.24087974857665        1.17289140533496        0.09879994834543
N            2.30271339947534        0.10504491725559        0.03780701959526
C            2.60228045566244       -1.24046912197704        0.03106679490379
N            1.41906703834114       -1.93785617596234       -0.00458856185159
C            0.40053493342704       -1.05485827046578       -0.00738387188078
C            0.91441816488977        0.24101356619098        0.01808341755998
C            0.09923748985346        1.40673323628290       -0.01946992059859
O            0.42640905523340        2.59929824926606       -0.04463262123498
N           -1.27663733753563        1.05064418144196       -0.02296439835581
C           -2.19601605945129        2.18283794566009       -0.05959438085863
C           -1.82218279976362       -0.20004405473708       -0.03226915645015
O           -3.02002873381221       -0.39657973239585       -0.05089516893400
N           -0.93804965354613       -1.30486935731495       -0.03284914896096
C           -1.46481875151768       -2.65189411754479       -0.06821858255247
H            3.69985606446130        1.22620723285601        1.09053118280401
H            4.02354834686286        1.02794730366802       -0.64821871044596
H            2.69745974972555        2.09368471504353       -0.09933608419168
H            3.57886336152427       -1.65664973781653        0.03809764639277
H           -1.65114702850992        3.13822548796775       -0.15519984945610
H           -2.87935618582539        2.05321930952468       -0.89512945936977
H           -2.79277055322913        2.18138863029847        0.84722715040501
H           -1.15912364333785       -3.21432042153226        0.81767191302774
H           -1.13892859973922       -3.17863623564232       -0.96907290184842
H           -2.55089884134419       -2.57175324640311       -0.07880528771093
H            1.36509059574197       -2.94323921457230       -0.02499261762215
25
 energy: -43.812386151571 gnorm: 0.105963843174 xtb: 6.6.1 (8d0f1dd)
C            3.23880763679198        1.16714356514263        0.11300909991016
N            2.30316607274364        0.10881946682009        0.05020648492038
C            2.60617287982853       -1.24833184962364        0.02518523231673
N            1.42135674436460       -1.95710200028423       -0.01908978661042
C            0.41517389357536       -1.07125431939054       -0.01014994112184
C            0.90682200864779        0.25166012470665        0.02620119401104
C            0.07128761247716        1.47293015616453       -0.03548811737885
O            0.29593871225057        2.69188286847141       -0.08924791315565
N           -1.28402716129252        1.02532624919535       -0.00248803165843
C           -2.13535579790066        2.22669729464888       -0.06500241939069
C           -1.82439578217475       -0.22165599339289       -0.00952380280352
O           -3.02189630377790       -0.41174833426428       -0.03356369825401
N           -0.93667045180908       -1.33003190331879       -0.02900274535304
C           -1.45658864639758       -2.67347209111035       -0.07602517300184
H            3.67638144728688        1.22668972225276        1.11395085729052
H            4.03449759479706        1.01458416333356       -0.61898381238700
H            2.69425233616451        2.07323417948800       -0.10902023102990
H            3.58050563195027       -1.66902155236976        0.03047429007934
H           -1.63589367447785        3.28908614484553       -0.30196704465852
H           -2.93103003582655        2.00277585328517       -0.81457981656092
H           -2.70689078525999        2.26821426777217        0.85026877331067
H           -1.14940775653244       -3.23404941050494        0.80875193658304
H           -1.13316119898221       -3.19037807362439       -0.97918562136454
H           -2.54443216183233       -2.59850138133930       -0.08084202260264
H            1.36401734802223       -2.95752224129919       -0.04468690008992
25
 energy: -43.825183126195 gnorm: 0.035484567446 xtb: 6.6.1 (8d0f1dd)
C            3.24316743254930        1.17306616623079        0.11269347598891
N            2.30470785338945        0.10818227562304        0.04440069103533
C            2.60347751443779       -1.24388384964084        0.02522865567640
N            1.41153912949630       -1.93623837734710       -0.01538456648290
C            0.40251733519652       -1.04797840284442       -0.01132208280605
C            0.91264846535867        0.25079342094417        0.02144374538337
C            0.09664495724162        1.43290295739943       -0.03255161072066
O            0.38993695682033        2.62861324547960       -0.08167133900741
N           -1.28341938594686        1.04695642692251       -0.01690869066908
C           -2.19621290725324        2.19572211817258       -0.06705284451930
C           -1.82993572554613       -0.19929751866238       -0.02608575569466
O           -3.02861804254439       -0.39779870234243       -0.03310507987022
N           -0.94153805311240       -1.30338727915724       -0.03119680476752
C           -1.45723348082404       -2.65399652338363       -0.07277234480535
H            3.68565008863801        1.23746935474676        1.11242329941997
H            4.04069889629841        1.02325799841376       -0.61815897267204
H            2.70463390789496        2.09016233504134       -0.10578356541984
H            3.57755541545831       -1.67002990821093        0.02954981514733
H           -1.64366514770704        3.15145084094686       -0.28533603161758
H           -2.95160451016619        2.01176027722658       -0.84180245713951
H           -2.71909143134686        2.28284817144837        0.88154609527466
H           -1.14699767333718       -3.22207417062137        0.80857568839646
H           -1.12968547965991       -3.17604374331061       -0.97528958502528
H           -2.54502192258277       -2.58682091337767       -0.08094296679202
H            1.34847596988407       -2.93966129409275       -0.04129597731289
25
 energy: -43.826812929807 gnorm: 0.014804604814 xtb: 6.6.1 (8d0f1dd)
C            3.23724128602960        1.17108451617463        0.11361857825219
N            2.29844359516185        0.10727641351516        0.04333490877490
C            2.60204437856855       -1.24302487653587        0.02645277526075
N            1.41370699850932       -1.93633933216358       -0.01603082413301
C            0.39980702033773       -1.04841616562512       -0.00886483596023
C            0.90707205375807        0.25409381105007        0.02091514055873
C            0.08997334295764        1.43001420620420       -0.03238932348061
O            0.36462467759602        2.63140581317271       -0.08783335097950
N           -1.28516294056725        1.05129559720653       -0.01585414714716
C           -2.17387836730851        2.21694929886185       -0.07457412032351
C           -1.82870572708664       -0.20246714171392       -0.01584492950234
O           -3.02552533134945       -0.40913079517759       -0.02742548287575
N           -0.94027837014731       -1.30844586962996       -0.02706556927565
C           -1.45436390644241       -2.66328569302826       -0.07378435639132
H            3.67679389664888        1.23242564209398        1.11494679059606
H            4.03379560866460        1.01809054551805       -0.61772553093932
H            2.69470206898322        2.08643765041755       -0.10612052920761
H            3.57792420854908       -1.66646102029425        0.02984585705909
H           -1.65876364755102        3.18843542373318       -0.28300984118038
H           -2.92338374247856        2.01740853868118       -0.83408966081557
H           -2.69885525710162        2.29170849899305        0.86981935317516
H           -1.14377528109081       -3.23572177129250        0.80527402351332
H           -1.12878786678677       -3.18599577643888       -0.97841333989551
H           -2.54203276671681       -2.59896819456994       -0.08047702840227
H            1.35601423149930       -2.94239441354786       -0.04550376568032
25
 energy: -43.826844264955 gnorm: 0.010622152984 xtb: 6.6.1 (8d0f1dd)
C            3.24549437530420        1.16919103617299        0.11192972784420
N            2.30260442449368        0.10718387313316        0.04276222374031
C            2.60433947160570       -1.24475617229901        0.02737829124209
N            1.41637627383777       -1.93771261120178       -0.01402661892439
C            0.40240731955871       -1.04806487237199       -0.01072675306828
C            0.90974987137537        0.25837857214528        0.02050680449953
C            0.08706908896723        1.43396796243248       -0.02847357676712
O            0.34790082840463        2.64240320453617       -0.07725836354033
N           -1.28594550645457        1.05161287105651       -0.01666241970676
C           -2.17770798881426        2.21511831553481       -0.07339130707309
C           -1.82679991898738       -0.20378508932558       -0.02254212189758
O           -3.02302657369119       -0.41238904240119       -0.03897553531919
N           -0.93712184567289       -1.30817128796203       -0.03143870231919
C           -1.45913695762551       -2.65872467801710       -0.07338119767423
H            3.68705180273988        1.23152758618626        1.11209471921150
H            4.04146118639298        1.01658088571606       -0.62009728494543
H            2.70438526172895        2.08486907555452       -0.10807548249659
H            3.57975170572136       -1.66958138879506        0.02967728246843
H           -1.64971991560108        3.18650671268480       -0.28767649746359
H           -2.93524537662166        2.00482929894446       -0.82280456433564
H           -2.71118983341890        2.27297983450089        0.86851691419542
H           -1.15287873808492       -3.22310897095098        0.81179406888956
H           -1.13322985637684       -3.18417115622234       -0.97604736045617
H           -2.54625027477440       -2.58396704124226       -0.08248139268689
H            1.35829133862986       -2.94474201220466       -0.04140006241645
25
 energy: -43.827054208950 gnorm: 0.005154737698 xtb: 6.6.1 (8d0f1dd)
C            3.23998397085592        1.17119163910136        0.11458642621699
N            2.30091107392890        0.10571322011859        0.04363670842278
C            2.60251303727571       -1.24613452182610        0.02677720747959
N            1.41420576095299       -1.93921543083262       -0.01605035846003
C            0.40030164704223       -1.04995216585925       -0.01037218329156
C            0.90881349425256        0.25565997729456        0.02012934606354
C            0.09062205242294        1.43151016540155       -0.03343317693374
O            0.35846806491311        2.63919791108165       -0.08744122105249
N           -1.28425223931751        1.05214291318950       -0.01551007510058
C           -2.17697879628462        2.21584219404701       -0.07396749912990
C           -1.82773822624364       -0.20243835977437       -0.01668228387324
O           -3.02494029483141       -0.40687379485887       -0.02708205513654
N           -0.93929152080369       -1.30910928364450       -0.02884920377215
C           -1.45671484254630       -2.66163111323224       -0.07371393363017
H            3.67927598325527        1.23489512950052        1.11540434643366
H            4.03678533570726        1.02244547110757       -0.61696083679583
H            2.69613621539898        2.08538832997929       -0.10506384093005
H            3.57805791727457       -1.67017046939198        0.02849553375147
H           -1.64241197654913        3.18276291873486       -0.28856882312273
H           -2.93454709810600        2.01311030421446       -0.82901922102335