      -----------------------------------------------------------      
     |                   =====================                   |     
     |                           x T B                           |     
     |                   =====================                   |     
     |                         S. Grimme                         |     
     |          Mulliken Center for Theoretical Chemistry        |     
     |                    University of Bonn                     |     
      -----------------------------------------------------------      

   * xtb version 6.6.1 (8d0f1dd) compiled by 'conda@1efc2f54142f' on 2023-08-01

   xtb is free software: you can redistribute it and/or modify it under
   the terms of the GNU Lesser General Public License as published by
   the Free Software Foundation, either version 3 of the License, or
   (at your option) any later version.
   
   xtb is distributed in the hope that it will be useful,
   but WITHOUT ANY WARRANTY; without even the implied warranty of
   MERCHANTABILITY or FITNESS FOR A PARTICULAR PURPOSE.  See the
   GNU Lesser General Public License for more details.
   
   Cite this work as:
   * C. Bannwarth, E. Caldeweyher, S. Ehlert, A. Hansen, P. Pracht,
     J. Seibert, S. Spicher, S. Grimme, WIREs Comput. Mol. Sci., 2020, 11,
     e01493. DOI: 10.1002/wcms.1493
   
   for GFN2-xTB:
   * C. Bannwarth, S. Ehlert and S. Grimme., J. Chem. Theory Comput., 2019,
     15, 1652-1671. DOI: 10.1021/acs.jctc.8b01176
   for GFN1-xTB:
   * S. Grimme, C. Bannwarth, P. Shushkov, J. Chem. Theory Comput., 2017,
     13, 1989-2009. DOI: 10.1021/acs.jctc.7b00118
   for GFN0-xTB:
   * P. Pracht, E. Caldeweyher, S. Ehlert, S. Grimme, ChemRxiv, 2019, preprint.
     DOI: 10.26434/chemrxiv.8326202.v1
   for GFN-FF:
   * S. Spicher and S. Grimme, Angew. Chem. Int. Ed., 2020, 59, 15665-15673.
     DOI: 10.1002/anie.202004239
   
   for ALPB and GBSA implicit solvation:
   * S. Ehlert, M. Stahn, S. Spicher, S. Grimme, J. Chem. Theory Comput.,
     2021, 17, 4250-4261. DOI: 10.1021/acs.jctc.1c00471
   
   for DFT-D4:
   * E. Caldeweyher, C. Bannwarth and S. Grimme, J. Chem. Phys., 2017,
     147, 034112. DOI: 10.1063/1.4993215
   * E. Caldeweyher, S. Ehlert, A. Hansen, H. Neugebauer, S. Spicher,
     C. Bannwarth and S. Grimme, J. Chem. Phys., 2019, 150, 154122.
     DOI: 10.1063/1.5090222
   * E. Caldeweyher, J.-M. Mewes, S. Ehlert and S. Grimme, Phys. Chem. Chem. Phys.
     2020, 22, 8499-8512. DOI: 10.1039/D0CP00502A
   
   for sTDA-xTB:
   * S. Grimme and C. Bannwarth, J. Chem. Phys., 2016, 145, 054103.
     DOI: 10.1063/1.4959605
   
   in the mass-spec context:
   * V. Asgeirsson, C. Bauer and S. Grimme, Chem. Sci., 2017, 8, 4879.
     DOI: 10.1039/c7sc00601b
   * J. Koopman and S. Grimme, ACS Omega 2019, 4, 12, 15120-15133.
     DOI: 10.1021/acsomega.9b02011
   
   for metadynamics refer to:
   * S. Grimme, J. Chem. Theory Comput., 2019, 155, 2847-2862
     DOI: 10.1021/acs.jctc.9b00143
   
   for SPH calculations refer to:
   * S. Spicher and S. Grimme, J. Chem. Theory Comput., 2021, 17, 1701-1714
     DOI: 10.1021/acs.jctc.0c01306
   
   with help from (in alphabetical order)
   P. Atkinson, C. Bannwarth, F. Bohle, G. Brandenburg, E. Caldeweyher
   M. Checinski, S. Dohm, S. Ehlert, S. Ehrlich, I. Gerasimov, C. Hölzer
   A. Katbashev, J. Koopman, C. Lavigne, S. Lehtola, F. März, M. Müller,
   F. Musil, H. Neugebauer, J. Pisarek, C. Plett, P. Pracht, F. Pultar,
   J. Seibert, P. Shushkov, S. Spicher, M. Stahn, M. Steiner, T. Strunk,
   J. Stückrath, T. Rose, and J. Unsleber
   
 * started run on 2024/06/05 at 19:59:10.063     

           -------------------------------------------------
          |                Calculation Setup                |
           -------------------------------------------------

          program call               : xtb xtbopt.xyz --opt crude --input .xc2 --gfn2
          hostname                   : n-62-31-11
          coordinate file            : xtbopt.xyz
          omp threads                :                     1

   ID    Z sym.   atoms
    1    6 C      1, 3, 5-7, 10, 11, 14
    2    7 N      2, 4, 9, 13
    3    8 O      8, 12
    4    1 H      15-25
########################################################################
[WARNING] Please study the warnings concerning your input carefully
-1- readin_getIntValue: could not parse ''
########################################################################

           -------------------------------------------------
          |                 G F N 2 - x T B                 |
           -------------------------------------------------

        Reference                      10.1021/acs.jctc.8b01176
      * Hamiltonian:
        H0-scaling (s, p, d)           1.850000    2.230000    2.230000
        zeta-weighting                 0.500000
      * Dispersion:
        s8                             2.700000
        a1                             0.520000
        a2                             5.000000
        s9                             5.000000
      * Repulsion:
        kExp                           1.500000    1.000000
        rExp                           1.000000
      * Coulomb:
        alpha                          2.000000
        third order                    shell-resolved
        anisotropic                    true
        a3                             3.000000
        a5                             4.000000
        cn-shift                       1.200000
        cn-exp                         4.000000
        max-rad                        5.000000

q/qsh data taken from xtbrestart
CAMM data taken from xtbrestart

          ...................................................
          :                      SETUP                      :
          :.................................................:
          :  # basis functions                  67          :
          :  # atomic orbitals                  67          :
          :  # shells                           39          :
          :  # electrons                        74          :
          :  max. iterations                   250          :
          :  Hamiltonian                  GFN2-xTB          :
          :  restarted?                       true          :
          :  GBSA solvation                  false          :
          :  PC potential                    false          :
          :  electronic temp.         5000.0000000     K    :
          :  accuracy                    1.0000000          :
          :  -> integral cutoff          0.2500000E+02      :
          :  -> integral neglect         0.1000000E-07      :
          :  -> SCF convergence          0.1000000E-05 Eh   :
          :  -> wf. convergence          0.1000000E-03 e    :
          :  Broyden damping             0.4000000          :
          ...................................................

 iter      E             dE          RMSdq      gap      omega  full diag
   1    -42.5955304 -0.425955E+02  0.497E-05    0.19       0.0  T
   2    -42.5955304  0.233769E-10  0.431E-05    0.19     463.7  T
   3    -42.5955304  0.150635E-11  0.375E-05    0.19     533.9  T

   *** convergence criteria satisfied after 3 iterations ***

         #    Occupation            Energy/Eh            Energy/eV
      -------------------------------------------------------------
         1        2.0000           -0.8962449             -24.3881
       ...           ...                  ...                  ...
        31        1.9969           -0.6202825             -16.8787
        32        1.9942           -0.6101195             -16.6022
        33        1.9909           -0.6030147             -16.4089
        34        1.9836           -0.5937267             -16.1561
        35        1.9666           -0.5822873             -15.8448
        36        1.7392           -0.5478024             -14.9065
        37        1.2543           -0.5259939             -14.3130 (HOMO)
        38        1.0409           -0.5190573             -14.1243 (LUMO)
        39        0.0359           -0.4543861             -12.3645
        40        0.0015           -0.4041623             -10.9978
        41        0.0005           -0.3854895             -10.4897
        42        0.0000           -0.3026698              -8.2361
       ...           ...                  ...                  ...
        67                          0.5388109              14.6618
      -------------------------------------------------------------
                  HL-Gap            0.0069365 Eh            0.1888 eV
             Fermi-level           -0.5177615 Eh          -14.0890 eV

 SCC (total)                   0 d,  0 h,  0 min,  0.025 sec
 SCC setup                      ...        0 min,  0.000 sec (  1.204%)
 Dispersion                     ...        0 min,  0.000 sec (  1.427%)
 classical contributions        ...        0 min,  0.000 sec (  0.394%)
 integral evaluation            ...        0 min,  0.005 sec ( 21.653%)
 iterations                     ...        0 min,  0.006 sec ( 23.317%)
 molecular gradient             ...        0 min,  0.013 sec ( 51.353%)
 printout                       ...        0 min,  0.000 sec (  0.605%)

         :::::::::::::::::::::::::::::::::::::::::::::::::::::
         ::                     SUMMARY                     ::
         :::::::::::::::::::::::::::::::::::::::::::::::::::::
         :: total energy             -42.087891913171 Eh    ::
         :: gradient norm              0.018103412001 Eh/a0 ::
         :: HOMO-LUMO gap              0.188752469068 eV    ::
         ::.................................................::
         :: SCC energy               -42.595530374881 Eh    ::
         :: -> isotropic ES            0.134025886588 Eh    ::
         :: -> anisotropic ES         -0.009612640015 Eh    ::
         :: -> anisotropic XC          0.017705211214 Eh    ::
         :: -> dispersion             -0.022106347236 Eh    ::
         :: repulsion energy           0.507508746573 Eh    ::
         :: add. restraining           0.000000000000 Eh    ::
         :: total charge               1.000000000021 e     ::
         :::::::::::::::::::::::::::::::::::::::::::::::::::::

      ----------------------------------------------------------- 
     |                   =====================                   |
     |                        A N C O P T                        |
     |                   =====================                   |
     |               Approximate Normal Coordinate               |
     |                Rational Function Optimizer                |
      ----------------------------------------------------------- 

          ...................................................
          :                      SETUP                      :
          :.................................................:
          :   optimization level             crude          :
          :   max. optcycles                   200          :
          :   ANC micro-cycles                  20          :
          :   degrees of freedom                69          :
          :.................................................:
          :   RF solver                   davidson          :
          :   write xtbopt.log                true          :
          :   linear?                        false          :
          :   energy convergence         0.5000000E-03 Eh   :
          :   grad. convergence          0.1000000E-01 Eh/α :
          :   maxmium RF displ.          1.0000000          :
          :   Hlow (freq-cutoff)         0.1000000E-01      :
          :   Hmax (freq-cutoff)         5.0000000          :
          :   S6 in model hess.         20.0000000          :
          ...................................................

generating ANC from model Hessian ...
Using Lindh-Hessian (1995)
 Shifting diagonal of input Hessian by    8.4429155406986339E-003
 Lowest  eigenvalues of input Hessian
    0.000000    0.000000    0.000000    0.000000    0.000000    0.000000
    0.010000    0.012546    0.013056    0.013811    0.014531    0.014944
    0.017840    0.018507    0.020620    0.023219    0.026943    0.036805
 Highest eigenvalues
    1.904147    2.051233    2.161133    2.254068    2.364836    2.539429


........................................................................
.............................. CYCLE    1 ..............................
........................................................................

 iter      E             dE          RMSdq      gap      omega  full diag
   1    -42.5955304 -0.425955E+02  0.394E-05    0.19       0.0  T
   2    -42.5955304  0.436366E-09  0.106E-04    0.19     188.3  T
   3    -42.5955304 -0.485485E-09  0.140E-05    0.19    1425.2  T
     SCC iter.                  ...        0 min,  0.005 sec
     gradient                   ...        0 min,  0.013 sec
 * total energy  :   -42.0878919 Eh     change       -0.4123279E-10 Eh
   gradient norm :     0.0181031 Eh/α   predicted     0.0000000E+00 (-100.00%)
   displ. norm   :     0.3730221 α      lambda       -0.3993813E-02
   maximum displ.:     0.2760889 α      in ANC's #6, #7, #12, ...

........................................................................
.............................. CYCLE    2 ..............................
........................................................................

 iter      E             dE          RMSdq      gap      omega  full diag
   1    -42.6026750 -0.426027E+02  0.150E-01    0.11       0.0  T
   2    -42.6012202  0.145484E-02  0.204E-01    0.14       1.0  T
   3    -42.6024282 -0.120800E-02  0.123E-01    0.11       1.0  T
   4    -42.6028395 -0.411311E-03  0.295E-02    0.13       1.0  T
   5    -42.6028673 -0.277492E-04  0.900E-03    0.12       2.2  T
   6    -42.6028689 -0.164739E-05  0.440E-03    0.12       4.5  T
   7    -42.6028694 -0.466968E-06  0.133E-03    0.12      15.0  T
   8    -42.6028694 -0.185597E-07  0.334E-04    0.12      59.9  T
   9    -42.6028694 -0.154039E-08  0.144E-04    0.12     138.7  T
     SCC iter.                  ...        0 min,  0.012 sec
     gradient                   ...        0 min,  0.013 sec
 * total energy  :   -42.0911762 Eh     change       -0.3284325E-02 Eh
   gradient norm :     0.0113162 Eh/α   predicted    -0.2274770E-02 ( -30.74%)
   displ. norm   :     0.5856357 α      lambda       -0.4006427E-02
   maximum displ.:     0.4383550 α      in ANC's #6, #7, #12, ...

........................................................................
.............................. CYCLE    3 ..............................
........................................................................

 iter      E             dE          RMSdq      gap      omega  full diag
   1    -42.6062497 -0.426062E+02  0.241E-01    0.09       0.0  T
   2    -42.6006668  0.558290E-02  0.383E-01    0.06       1.0  T
   3    -42.6061697 -0.550288E-02  0.179E-01    0.09       1.0  T
   4    -42.6069460 -0.776340E-03  0.431E-02    0.07       1.0  T
   5    -42.6070121 -0.660754E-04  0.138E-02    0.07       1.4  T
   6    -42.6070158 -0.370928E-05  0.618E-03    0.07       3.2  T
   7    -42.6070164 -0.555260E-06  0.259E-03    0.07       7.7  T
   8    -42.6070165 -0.869347E-07  0.632E-04    0.07      31.6  T
   9    -42.6070165 -0.273620E-08  0.285E-04    0.07      70.3  T
     SCC iter.                  ...        0 min,  0.012 sec
     gradient                   ...        0 min,  0.013 sec
 * total energy  :   -42.0937986 Eh     change       -0.2622385E-02 Eh
   gradient norm :     0.0133318 Eh/α   predicted    -0.2690254E-02 (   2.59%)
   displ. norm   :     0.2648020 α      lambda       -0.7464888E-03
   maximum displ.:     0.2009934 α      in ANC's #6, #7, #9, ...

........................................................................
.............................. CYCLE    4 ..............................
........................................................................

 iter      E             dE          RMSdq      gap      omega  full diag
   1    -42.6078480 -0.426078E+02  0.128E-01    0.15       0.0  T
   2    -42.6063301  0.151791E-02  0.200E-01    0.11       1.0  T
   3    -42.6078332 -0.150314E-02  0.954E-02    0.15       1.0  T
   4    -42.6080591 -0.225826E-03  0.229E-02    0.14       1.0  T
   5    -42.6080754 -0.163429E-04  0.467E-03    0.13       4.3  T
   6    -42.6080756 -0.189448E-06  0.249E-03    0.13       8.0  T
   7    -42.6080756 -0.315182E-07  0.641E-04    0.13      31.2  T
   8    -42.6080756 -0.463898E-08  0.266E-04    0.13      75.1  T
     SCC iter.                  ...        0 min,  0.011 sec
     gradient                   ...        0 min,  0.013 sec
 * total energy  :   -42.0942419 Eh     change       -0.4432844E-03 Eh
   gradient norm :     0.0097172 Eh/α   predicted    -0.3994167E-03 (  -9.90%)
   displ. norm   :     0.0856231 α      lambda       -0.2455935E-03
   maximum displ.:     0.0405645 α      in ANC's #6, #1, #5, ...

   *** GEOMETRY OPTIMIZATION CONVERGED AFTER 4 ITERATIONS ***

------------------------------------------------------------------------
 total energy gain   :        -0.0063500 Eh       -3.9847 kcal/mol
 total RMSD          :         0.2421794 a0        0.1282 Å
 total power (kW/mol):        -4.1679773 (step) -134.4579 (real)
------------------------------------------------------------------------

 ANCopt (total)                0 d,  0 h,  0 min,  0.124 sec
 optimizer setup                ...        0 min,  0.000 sec (  0.322%)
 model hessian                  ...        0 min,  0.006 sec (  4.589%)
 ANC generation                 ...        0 min,  0.001 sec (  0.623%)
 coordinate transformation      ...        0 min,  0.000 sec (  0.028%)
 single point calculation       ...        0 min,  0.114 sec ( 92.293%)
 optimization log               ...        0 min,  0.002 sec (  1.594%)
 hessian update                 ...        0 min,  0.000 sec (  0.037%)
 rational function              ...        0 min,  0.000 sec (  0.257%)

================
 final structure:
================
25
 xtb: 6.6.1 (8d0f1dd)
C            3.16159332594771        1.39502138787386        0.02582995676554
N            2.35048490193495        0.26040975079500        0.03581255351552
C            2.55775504202531       -2.31698068128982        0.23439845999096
N            1.27539516237482       -2.23293490598448        0.18648987694557
C            0.46095837068535       -1.11139702048727        0.06557280756812
C            1.06308777666233        0.16267894739998        0.03014246308202
C            0.14455864506434        1.35512659823637       -0.01501756653581
O            0.56407280351225        2.48826272940028        0.00684778481355
N           -1.19042984796456        1.06111966474621       -0.08434428215411
C           -2.14219976323635        2.16556591481899       -0.14026790581140
C           -1.76361313126148       -0.19666286451012       -0.10271079325182
O           -2.94944006981704       -0.35950114856483       -0.18664902014212
N           -0.88175392400087       -1.28404033210613       -0.01050625453104
C           -1.48448679651245       -2.60505676081158       -0.01516076978434
H            3.92460958840426        1.28708864599498       -0.74985043133521
H            2.57535664847788        2.30472319542664       -0.14776218687361
H            3.67862189094683        1.48741566529951        0.98691193806214
H            3.20117950742050       -1.44198164363872        0.18083362250771
H           -1.59005132494566        3.10160117847624       -0.14224465786771
H           -2.74704064670738        2.07797432298128       -1.04242867371289
H           -2.80516651038610        2.11949973228301        0.72360157624288
H           -1.32403127559385       -3.11568438440645        0.93653010157178
H           -1.11237742021923       -3.20362101107342       -0.84821577265762
H           -2.55886905309805       -2.46484042710973       -0.14705187941066
H            0.75221761438652       -3.11554801215082        0.25041067090199

 Bond Distances (Angstroems)
 ---------------------------
C1-N2=1.3948         C1-H15=1.0934        C1-H16=1.0961        C1-H17=1.0952        N2-C1=1.3948         N2-C6=1.2911         
C3-N4=1.2860         C3-H18=1.0874        N4-C3=1.2860         N4-C5=1.3913         N4-H25=1.0280        C5-N4=1.3913         
C5-C6=1.4096         C5-N13=1.3559        C6-N2=1.2911         C6-C5=1.4096         C6-C7=1.5059         C7-C6=1.5059         
C7-O8=1.2085         C7-N9=1.3687         O8-C7=1.2085         N9-C7=1.3687         N9-C10=1.4590        N9-C11=1.3824        
C10-N9=1.4590        C10-H19=1.0868       C10-H20=1.0897       C10-H21=1.0899       C11-N9=1.3824        C11-O12=1.1999       
C11-N13=1.4031       O12-C11=1.1999       N13-C5=1.3559        N13-C11=1.4031       N13-C14=1.4520       C14-N13=1.4520       
C14-H22=1.0919       C14-H23=1.0912       C14-H24=1.0915       H15-C1=1.0934        H16-C1=1.0961        H17-C1=1.0952        
H18-C3=1.0874        H19-C10=1.0868       H20-C10=1.0897       H21-C10=1.0899       H22-C14=1.0919       H23-C14=1.0912       
H24-C14=1.0915       H25-N4=1.0280        
 C  H  Rav=1.0913 sigma=0.0029  Rmin=1.0868  Rmax=1.0961    10
 C  C  Rav=1.4578 sigma=0.0481  Rmin=1.4096  Rmax=1.5059     2
 N  H  Rav=1.0280 sigma=0.0000  Rmin=1.0280  Rmax=1.0280     1
 N  C  Rav=1.3784 sigma=0.0545  Rmin=1.2860  Rmax=1.4590    10
 O  C  Rav=1.2042 sigma=0.0043  Rmin=1.1999  Rmax=1.2085     2

 selected bond angles (degree)
 --------------------
H15-C1-N2=109.31               H16-C1-N2=111.42               H16-C1-H15=110.05              H17-C1-N2=109.69               
H17-C1-H15=107.54              H17-C1-H16=108.75              C6-N2-C1=129.90                H18-C3-N4=122.38               
C5-N4-C3=129.76                H25-N4-C3=116.68               H25-N4-C5=113.55               C6-C5-N4=118.73                
N13-C5-N4=118.81               N13-C5-C6=122.46               C5-C6-N2=119.62                C7-C6-N2=123.26                
C7-C6-C5=117.12                O8-C7-C6=122.02                N9-C7-C6=115.24                N9-C7-O8=122.74                
C10-N9-C7=118.40               C11-N9-C7=126.91               C11-N9-C10=114.69              H19-C10-N9=108.70              
H20-C10-N9=109.45              H20-C10-H19=110.47             H21-C10-N9=109.54              H21-C10-H19=110.30             
H21-C10-H20=108.37             

 selected dihedral angles (degree)
 ---------------------------------
C6-N2-C1-H15=229.19           C6-N2-C1-H16=351.04           C6-N2-C1-H17=111.51           C5-N4-C3-H18=  0.00           
H25-N4-C3-H18=180.37          C6-C5-N4-C3=357.54            C6-C5-N4-H25=177.19           N13-C5-N4-C3=177.69           
N13-C5-N4-H25=357.34          C5-C6-N2-C1=181.05            C7-C6-N2-C1=  1.15            N2-C6-C5-N4=  3.79            
N2-C6-C5-N13=183.62           C7-C6-C5-N4=183.70            C7-C6-C5-N13=  3.54           O8-C7-C6-N2=356.87            
O8-C7-C6-C5=176.96            N9-C7-C6-N2=176.77            N9-C7-C6-C5=356.86            C10-N9-C7-C6=180.40           
C10-N9-C7-O8=  0.29           C11-N9-C7-C6=  0.70           C11-N9-C7-O8=180.59           H19-C10-N9-C7=  1.48          
H19-C10-N9-C11=181.22         H20-C10-N9-C7=122.22          H20-C10-N9-C11=301.95         H21-C10-N9-C7=240.90          
H21-C10-N9-C11= 60.64         
           -------------------------------------------------
          |                Final Singlepoint                |
           -------------------------------------------------

          ...................................................
          :                      SETUP                      :
          :.................................................:
          :  # basis functions                  67          :
          :  # atomic orbitals                  67          :
          :  # shells                           39          :
          :  # electrons                        74          :
          :  max. iterations                   250          :
          :  Hamiltonian                  GFN2-xTB          :
          :  restarted?                      false          :
          :  GBSA solvation                  false          :
          :  PC potential                    false          :
          :  electronic temp.         5000.0000000     K    :
          :  accuracy                    1.0000000          :
          :  -> integral cutoff          0.2500000E+02      :
          :  -> integral neglect         0.1000000E-07      :
          :  -> SCF convergence          0.1000000E-05 Eh   :
          :  -> wf. convergence          0.1000000E-03 e    :
          :  Broyden damping             0.4000000          :
          ...................................................

 iter      E             dE          RMSdq      gap      omega  full diag
   1    -42.6080756 -0.426081E+02  0.128E-04    0.13       0.0  T
   2    -42.6080756  0.116872E-08  0.189E-04    0.13     105.7  T
   3    -42.6080756 -0.122302E-08  0.971E-05    0.13     205.9  T

   *** convergence criteria satisfied after 3 iterations ***

         #    Occupation            Energy/Eh            Energy/eV
      -------------------------------------------------------------
         1        2.0000           -0.8956545             -24.3720
       ...           ...                  ...                  ...
        31        1.9970           -0.6197068             -16.8631
        32        1.9946           -0.6103496             -16.6085
        33        1.9919           -0.6040010             -16.4357
        34        1.9855           -0.5946886             -16.1823
        35        1.9669           -0.5814664             -15.8225
        36        1.8586           -0.5575787             -15.1725
        37        1.1587           -0.5218546             -14.2004 (HOMO)
        38        1.0040           -0.5169142             -14.0660 (LUMO)
        39        0.0444           -0.4568612             -12.4318
        40        0.0017           -0.4046801             -11.0119
        41        0.0005           -0.3861077             -10.5065
        42        0.0000           -0.3011069              -8.1935
       ...           ...                  ...                  ...
        67                          0.5394577              14.6794
      -------------------------------------------------------------
                  HL-Gap            0.0049404 Eh            0.1344 eV
             Fermi-level           -0.5167871 Eh          -14.0625 eV

 SCC (total)                   0 d,  0 h,  0 min,  0.023 sec
 SCC setup                      ...        0 min,  0.000 sec (  0.849%)
 Dispersion                     ...        0 min,  0.000 sec (  0.765%)
 classical contributions        ...        0 min,  0.000 sec (  0.310%)
 integral evaluation            ...        0 min,  0.005 sec ( 19.741%)
 iterations                     ...        0 min,  0.005 sec ( 20.210%)
 molecular gradient             ...        0 min,  0.014 sec ( 57.597%)
 printout                       ...        0 min,  0.000 sec (  0.479%)

         :::::::::::::::::::::::::::::::::::::::::::::::::::::
         ::                     SUMMARY                     ::
         :::::::::::::::::::::::::::::::::::::::::::::::::::::
         :: total energy             -42.094241907904 Eh    ::
         :: gradient norm              0.009714865253 Eh/a0 ::
         :: HOMO-LUMO gap              0.134435655763 eV    ::
         ::.................................................::
         :: SCC energy               -42.608075621104 Eh    ::
         :: -> isotropic ES            0.134263082862 Eh    ::
         :: -> anisotropic ES         -0.009820693101 Eh    ::
         :: -> anisotropic XC          0.016609786422 Eh    ::
         :: -> dispersion             -0.022356623055 Eh    ::
         :: repulsion energy           0.513702309977 Eh    ::
         :: add. restraining           0.000000000000 Eh    ::
         :: total charge               1.000000000000 e     ::
         :::::::::::::::::::::::::::::::::::::::::::::::::::::

           -------------------------------------------------
          |                Property Printout                |
           -------------------------------------------------

    * Orbital Energies and Occupations

         #    Occupation            Energy/Eh            Energy/eV
      -------------------------------------------------------------
         1        2.0000           -0.8956545             -24.3720
       ...           ...                  ...                  ...
        25        1.9999           -0.6780940             -18.4519
        26        1.9999           -0.6768871             -18.4190
        27        1.9995           -0.6470152             -17.6062
        28        1.9993           -0.6424476             -17.4819
        29        1.9991           -0.6391332             -17.3917
        30        1.9987           -0.6326251             -17.2146
        31        1.9970           -0.6197068             -16.8631
        32        1.9946           -0.6103496             -16.6085
        33        1.9919           -0.6040010             -16.4357
        34        1.9855           -0.5946886             -16.1823
        35        1.9669           -0.5814664             -15.8225
        36        1.8586           -0.5575787             -15.1725
        37        1.1587           -0.5218546             -14.2004 (HOMO)
        38        1.0040           -0.5169142             -14.0660 (LUMO)
        39        0.0444           -0.4568612             -12.4318
        40        0.0017           -0.4046801             -11.0119
        41        0.0005           -0.3861077             -10.5065
        42        0.0000           -0.3011069              -8.1935
        43                         -0.2085941              -5.6761
        44                         -0.1694812              -4.6118
        45                         -0.1484953              -4.0408
        46                         -0.1003160              -2.7297
        47                         -0.0823387              -2.2406
        48                         -0.0437555              -1.1906
       ...                                ...                  ...
        67                          0.5394577              14.6794
      -------------------------------------------------------------
                  HL-Gap            0.0049404 Eh            0.1344 eV
             Fermi-level           -0.5167871 Eh          -14.0625 eV

     #   Z          covCN         q      C6AA      α(0)
     1   6 C        3.692    -0.055    21.756     6.674
     2   7 N        1.838    -0.119    24.368     7.315
     3   6 C        1.847    -0.068    32.998     9.280
     4   7 N        2.688     0.011    21.061     6.816
     5   6 C        2.854     0.088    26.039     8.364
     6   6 C        2.892     0.049    26.904     8.504
     7   6 C        2.767     0.270    22.447     7.759
     8   8 O        0.858    -0.325    20.241     6.032
     9   7 N        2.738    -0.067    22.537     7.051
    10   6 C        3.710    -0.063    21.844     6.679
    11   6 C        2.726     0.318    21.599     7.608
    12   8 O        0.860    -0.345    20.616     6.088
    13   7 N        2.740    -0.042    22.056     6.975
    14   6 C        3.700    -0.080    22.199     6.738
    15   1 H        0.924     0.117     1.638     2.002
    16   1 H        0.924     0.136     1.491     1.910
    17   1 H        0.924     0.121     1.606     1.982
    18   1 H        0.925     0.157     1.349     1.816
    19   1 H        0.925     0.115     1.655     2.012
    20   1 H        0.925     0.108     1.716     2.048
    21   1 H        0.925     0.106     1.731     2.058
    22   1 H        0.924     0.093     1.851     2.128
    23   1 H        0.924     0.092     1.857     2.131
    24   1 H        0.924     0.137     1.480     1.902
    25   1 H        0.859     0.248     0.893     1.480

 Mol. C6AA /au·bohr⁶  :       6565.321547
 Mol. C8AA /au·bohr⁸  :     151227.002922
 Mol. α(0) /au        :        123.351551


Wiberg/Mayer (AO) data.
largest (>0.10) Wiberg bond orders for each atom

 ---------------------------------------------------------------------------
     #   Z sym  total        # sym  WBO       # sym  WBO       # sym  WBO
 ---------------------------------------------------------------------------
     1   6 C    3.874 --     2 N    1.095    15 H    0.924    17 H    0.911
                            16 H    0.884
     2   7 N    2.901 --     6 C    1.536     1 C    1.095     3 C    0.108
     3   6 C    2.730 --     4 N    1.614    18 H    0.858     2 N    0.108
     4   7 N    3.668 --     3 C    1.614     5 C    1.091    25 H    0.874
     5   6 C    3.698 --     6 C    1.221    13 N    1.215     4 N    1.091
     6   6 C    3.917 --     2 N    1.536     5 C    1.221     7 C    0.937
     7   6 C    3.899 --     8 O    1.698     9 N    1.163     6 C    0.937
     8   8 O    2.038 --     7 C    1.698     9 N    0.140
     9   7 N    3.552 --     7 C    1.163    11 C    1.102    10 C    0.961
                             8 O    0.140    12 O    0.120
    10   6 C    3.892 --    19 H    0.967     9 N    0.961    21 H    0.959
                            20 H    0.959
    11   6 C    3.940 --    12 O    1.700     9 N    1.102    13 N    1.052
    12   8 O    2.014 --    11 C    1.700     9 N    0.120    13 N    0.110
    13   7 N    3.483 --     5 C    1.215    11 C    1.052    14 C    0.977
                            12 O    0.110
    14   6 C    3.914 --    13 N    0.977    23 H    0.962    22 H    0.960
                            24 H    0.955
    15   1 H    0.953 --     1 C    0.924
    16   1 H    0.928 --     1 C    0.884
    17   1 H    0.947 --     1 C    0.911
    18   1 H    0.937 --     3 C    0.858
    19   1 H    0.984 --    10 C    0.967
    20   1 H    0.979 --    10 C    0.959
    21   1 H    0.979 --    10 C    0.959
    22   1 H    0.981 --    14 C    0.960
    23   1 H    0.982 --    14 C    0.962
    24   1 H    0.979 --    14 C    0.955
    25   1 H    0.917 --     4 N    0.874
 ---------------------------------------------------------------------------

Topologies differ in total number of bonds
Writing topology from bond orders to xtbtopo.mol

molecular dipole:
                 x           y           z       tot (Debye)
 q only:        1.415      -1.633       0.128
   full:        1.266      -1.508       0.136       5.016
molecular quadrupole (traceless):
                xx          xy          yy          xz          yz          zz
 q only:        6.327      -0.550      10.972       0.605      -1.560     -17.299
  q+dip:        2.412       2.914       9.627      -0.066      -1.349     -12.039
   full:        0.813       2.658       8.941      -0.208      -1.222      -9.755

           -------------------------------------------------
          |                Geometry Summary                 |
           -------------------------------------------------

      molecular mass/u    :      195.1988581
   center of mass at/Å    :        0.0491872      -0.0588932      -0.0004942
  moments of inertia/u·Å² :        0.5441146E+03   0.6907803E+03   0.1224582E+04
rotational constants/cm⁻¹ :        0.3098177E-01   0.2440375E-01   0.1376602E-01

 * 23 selected distances

     #   Z          #   Z                                           value/Å
     1   6 C        2   7 N                                       1.3947546
     3   6 C        4   7 N                                       1.2860039
     4   7 N        5   6 C                                       1.3913216
     2   7 N        6   6 C                                       1.2911139
     5   6 C        6   6 C                                       1.4096401
     7   6 C        8   8 O                                       1.2084982
     7   6 C        9   7 N                                       1.3687370
     9   7 N       10   6 C                                       1.4590392 (max)
     9   7 N       11   6 C                                       1.3823508
    11   6 C       12   8 O                                       1.1998949
     5   6 C       13   7 N                                       1.3559021
    11   6 C       13   7 N                                       1.4030565
    13   7 N       14   6 C                                       1.4520308
     1   6 C       15   1 H                                       1.0934000
     1   6 C       16   1 H                                       1.0960681
     1   6 C       17   1 H                                       1.0952324
    10   6 C       19   1 H                                       1.0867539
    10   6 C       20   1 H                                       1.0896784
    10   6 C       21   1 H                                       1.0899164
    14   6 C       22   1 H                                       1.0918802
    14   6 C       23   1 H                                       1.0912037
    14   6 C       24   1 H                                       1.0914913
     4   7 N       25   1 H                                       1.0280110 (min)

 * 5 distinct bonds (by element types)

   Z      Z             #   av. dist./Å        max./Å        min./Å
   1 H    6 C           9     1.0917360     1.0960681     1.0867539
   6 C    6 C           1     1.4096401     1.4096401     1.4096401
   1 H    7 N           1     1.0280110     1.0280110     1.0280110
   6 C    7 N          10     1.3784310     1.4590392     1.2860039
   6 C    8 O           2     1.2041966     1.2084982     1.1998949


optimized geometry written to: xtbopt.xyz


           -------------------------------------------------
          | TOTAL ENERGY              -42.094241907904 Eh   |
          | GRADIENT NORM               0.009714865253 Eh/α |
          | HOMO-LUMO GAP               0.134435655763 eV   |
           -------------------------------------------------

------------------------------------------------------------------------
 * finished run on 2024/06/05 at 19:59:10.275     
------------------------------------------------------------------------
 total:
 * wall-time:     0 d,  0 h,  0 min,  0.212 sec
 *  cpu-time:     0 d,  0 h,  0 min,  0.184 sec
 * ratio c/w:     0.869 speedup
 SCF:
 * wall-time:     0 d,  0 h,  0 min,  0.025 sec
 *  cpu-time:     0 d,  0 h,  0 min,  0.025 sec
 * ratio c/w:     1.000 speedup
 ANC optimizer:
 * wall-time:     0 d,  0 h,  0 min,  0.153 sec
 *  cpu-time:     0 d,  0 h,  0 min,  0.147 sec
 * ratio c/w:     0.957 speedup

