      -----------------------------------------------------------      
     |                   =====================                   |     
     |                           x T B                           |     
     |                   =====================                   |     
     |                         S. Grimme                         |     
     |          Mulliken Center for Theoretical Chemistry        |     
     |                    University of Bonn                     |     
      -----------------------------------------------------------      

   * xtb version 6.6.1 (8d0f1dd) compiled by 'conda@1efc2f54142f' on 2023-08-01

   xtb is free software: you can redistribute it and/or modify it under
   the terms of the GNU Lesser General Public License as published by
   the Free Software Foundation, either version 3 of the License, or
   (at your option) any later version.
   
   xtb is distributed in the hope that it will be useful,
   but WITHOUT ANY WARRANTY; without even the implied warranty of
   MERCHANTABILITY or FITNESS FOR A PARTICULAR PURPOSE.  See the
   GNU Lesser General Public License for more details.
   
   Cite this work as:
   * C. Bannwarth, E. Caldeweyher, S. Ehlert, A. Hansen, P. Pracht,
     J. Seibert, S. Spicher, S. Grimme, WIREs Comput. Mol. Sci., 2020, 11,
     e01493. DOI: 10.1002/wcms.1493
   
   for GFN2-xTB:
   * C. Bannwarth, S. Ehlert and S. Grimme., J. Chem. Theory Comput., 2019,
     15, 1652-1671. DOI: 10.1021/acs.jctc.8b01176
   for GFN1-xTB:
   * S. Grimme, C. Bannwarth, P. Shushkov, J. Chem. Theory Comput., 2017,
     13, 1989-2009. DOI: 10.1021/acs.jctc.7b00118
   for GFN0-xTB:
   * P. Pracht, E. Caldeweyher, S. Ehlert, S. Grimme, ChemRxiv, 2019, preprint.
     DOI: 10.26434/chemrxiv.8326202.v1
   for GFN-FF:
   * S. Spicher and S. Grimme, Angew. Chem. Int. Ed., 2020, 59, 15665-15673.
     DOI: 10.1002/anie.202004239
   
   for ALPB and GBSA implicit solvation:
   * S. Ehlert, M. Stahn, S. Spicher, S. Grimme, J. Chem. Theory Comput.,
     2021, 17, 4250-4261. DOI: 10.1021/acs.jctc.1c00471
   
   for DFT-D4:
   * E. Caldeweyher, C. Bannwarth and S. Grimme, J. Chem. Phys., 2017,
     147, 034112. DOI: 10.1063/1.4993215
   * E. Caldeweyher, S. Ehlert, A. Hansen, H. Neugebauer, S. Spicher,
     C. Bannwarth and S. Grimme, J. Chem. Phys., 2019, 150, 154122.
     DOI: 10.1063/1.5090222
   * E. Caldeweyher, J.-M. Mewes, S. Ehlert and S. Grimme, Phys. Chem. Chem. Phys.
     2020, 22, 8499-8512. DOI: 10.1039/D0CP00502A
   
   for sTDA-xTB:
   * S. Grimme and C. Bannwarth, J. Chem. Phys., 2016, 145, 054103.
     DOI: 10.1063/1.4959605
   
   in the mass-spec context:
   * V. Asgeirsson, C. Bauer and S. Grimme, Chem. Sci., 2017, 8, 4879.
     DOI: 10.1039/c7sc00601b
   * J. Koopman and S. Grimme, ACS Omega 2019, 4, 12, 15120-15133.
     DOI: 10.1021/acsomega.9b02011
   
   for metadynamics refer to:
   * S. Grimme, J. Chem. Theory Comput., 2019, 155, 2847-2862
     DOI: 10.1021/acs.jctc.9b00143
   
   for SPH calculations refer to:
   * S. Spicher and S. Grimme, J. Chem. Theory Comput., 2021, 17, 1701-1714
     DOI: 10.1021/acs.jctc.0c01306
   
   with help from (in alphabetical order)
   P. Atkinson, C. Bannwarth, F. Bohle, G. Brandenburg, E. Caldeweyher
   M. Checinski, S. Dohm, S. Ehlert, S. Ehrlich, I. Gerasimov, C. Hölzer
   A. Katbashev, J. Koopman, C. Lavigne, S. Lehtola, F. März, M. Müller,
   F. Musil, H. Neugebauer, J. Pisarek, C. Plett, P. Pracht, F. Pultar,
   J. Seibert, P. Shushkov, S. Spicher, M. Stahn, M. Steiner, T. Strunk,
   J. Stückrath, T. Rose, and J. Unsleber
   
 * started run on 2024/06/05 at 19:57:58.411     

           -------------------------------------------------
          |                Calculation Setup                |
           -------------------------------------------------

          program call               : xtb struc.xyz --opt loose --input .xc1 --gfn2
          hostname                   : n-62-21-71
          coordinate file            : struc.xyz
          omp threads                :                     1

   ID    Z sym.   atoms
    1    6 C      1, 3, 5-7, 10, 11, 14
    2    7 N      2, 4, 9, 13
    3    8 O      8, 12
    4    1 H      15-25
constraining bond 6 7 to    4.0000000 Å, actual value:    1.4583840 Å

           -------------------------------------------------
          |                 G F N 2 - x T B                 |
           -------------------------------------------------

        Reference                      10.1021/acs.jctc.8b01176
      * Hamiltonian:
        H0-scaling (s, p, d)           1.850000    2.230000    2.230000
        zeta-weighting                 0.500000
      * Dispersion:
        s8                             2.700000
        a1                             0.520000
        a2                             5.000000
        s9                             5.000000
      * Repulsion:
        kExp                           1.500000    1.000000
        rExp                           1.000000
      * Coulomb:
        alpha                          2.000000
        third order                    shell-resolved
        anisotropic                    true
        a3                             3.000000
        a5                             4.000000
        cn-shift                       1.200000
        cn-exp                         4.000000
        max-rad                        5.000000


          ...................................................
          :                      SETUP                      :
          :.................................................:
          :  # basis functions                  67          :
          :  # atomic orbitals                  67          :
          :  # shells                           39          :
          :  # electrons                        74          :
          :  max. iterations                   250          :
          :  Hamiltonian                  GFN2-xTB          :
          :  restarted?                      false          :
          :  GBSA solvation                  false          :
          :  PC potential                    false          :
          :  electronic temp.         2500.0000000     K    :
          :  accuracy                    1.0000000          :
          :  -> integral cutoff          0.2500000E+02      :
          :  -> integral neglect         0.1000000E-07      :
          :  -> SCF convergence          0.1000000E-05 Eh   :
          :  -> wf. convergence          0.1000000E-03 e    :
          :  Broyden damping             0.4000000          :
          ...................................................

 iter      E             dE          RMSdq      gap      omega  full diag
   1    -42.5894761 -0.425895E+02  0.446E+00    3.52       0.0  T
   2    -42.7660496 -0.176573E+00  0.253E+00    3.37       1.0  T
   3    -42.7736311 -0.758158E-02  0.147E+00    3.27       1.0  T
   4    -42.7712089  0.242228E-02  0.522E-01    3.20       1.0  T
   5    -42.7763755 -0.516665E-02  0.115E-01    3.24       1.0  T
   6    -42.7764786 -0.103096E-03  0.599E-02    3.22       1.0  T
   7    -42.7764977 -0.190557E-04  0.265E-02    3.24       1.0  T
   8    -42.7765022 -0.458752E-05  0.826E-03    3.24       2.4  T
   9    -42.7765028 -0.511866E-06  0.435E-03    3.24       4.6  T
  10    -42.7765028 -0.741126E-07  0.110E-03    3.24      18.2  T
  11    -42.7765028 -0.615289E-08  0.514E-04    3.24      38.9  T
  12    -42.7765028 -0.131732E-08  0.162E-04    3.24     123.6  T

   *** convergence criteria satisfied after 12 iterations ***

         #    Occupation            Energy/Eh            Energy/eV
      -------------------------------------------------------------
         1        2.0000           -0.9218663             -25.0853
       ...           ...                  ...                  ...
        31        2.0000           -0.6245728             -16.9955
        32        2.0000           -0.6188521             -16.8398
        33        2.0000           -0.5946289             -16.1807
        34        1.9999           -0.5766508             -15.6915
        35        1.9996           -0.5616187             -15.2824
        36        1.9994           -0.5584494             -15.1962
        37        1.9993           -0.5575820             -15.1726 (HOMO)
        38        0.0017           -0.4385664             -11.9340 (LUMO)
        39        0.0000           -0.4059970             -11.0477
        40        0.0000           -0.3720875             -10.1250
        41                         -0.2883077              -7.8453
        42                         -0.2064013              -5.6165
       ...                                ...                  ...
        67                          0.5638960              15.3444
      -------------------------------------------------------------
                  HL-Gap            0.1190156 Eh            3.2386 eV
             Fermi-level           -0.4943591 Eh          -13.4522 eV

 SCC (total)                   0 d,  0 h,  0 min,  0.063 sec
 SCC setup                      ...        0 min,  0.000 sec (  0.393%)
 Dispersion                     ...        0 min,  0.000 sec (  0.479%)
 classical contributions        ...        0 min,  0.000 sec (  0.121%)
 integral evaluation            ...        0 min,  0.005 sec (  8.365%)
 iterations                     ...        0 min,  0.031 sec ( 48.936%)
 molecular gradient             ...        0 min,  0.026 sec ( 41.428%)
 printout                       ...        0 min,  0.000 sec (  0.257%)

         :::::::::::::::::::::::::::::::::::::::::::::::::::::
         ::                     SUMMARY                     ::
         :::::::::::::::::::::::::::::::::::::::::::::::::::::
         :: total energy             -30.711082075073 Eh    ::
         :: gradient norm              6.792285926214 Eh/a0 ::
         :: HOMO-LUMO gap              3.238579380711 eV    ::
         ::.................................................::
         :: SCC energy               -42.776502838750 Eh    ::
         :: -> isotropic ES            0.143394945287 Eh    ::
         :: -> anisotropic ES         -0.005231236584 Eh    ::
         :: -> anisotropic XC          0.012162721064 Eh    ::
         :: -> dispersion             -0.022660936007 Eh    ::
         :: repulsion energy           0.531105277918 Eh    ::
         :: add. restraining          11.534201326750 Eh    ::
         :: total charge               1.000000000000 e     ::
         :::::::::::::::::::::::::::::::::::::::::::::::::::::

      ----------------------------------------------------------- 
     |                   =====================                   |
     |                        A N C O P T                        |
     |                   =====================                   |
     |               Approximate Normal Coordinate               |
     |                Rational Function Optimizer                |
      ----------------------------------------------------------- 

          ...................................................
          :                      SETUP                      :
          :.................................................:
          :   optimization level             loose          :
          :   max. optcycles                   200          :
          :   ANC micro-cycles                  20          :
          :   degrees of freedom                69          :
          :.................................................:
          :   RF solver                   davidson          :
          :   write xtbopt.log                true          :
          :   linear?                        false          :
          :   energy convergence         0.5000000E-04 Eh   :
          :   grad. convergence          0.4000000E-02 Eh/α :
          :   maxmium RF displ.          1.0000000          :
          :   Hlow (freq-cutoff)         0.1000000E-01      :
          :   Hmax (freq-cutoff)         5.0000000          :
          :   S6 in model hess.         20.0000000          :
          ...................................................

generating ANC from model Hessian ...
Using Lindh-Hessian (1995)
 Shifting diagonal of input Hessian by    3.1897104647427250     
 Lowest  eigenvalues of input Hessian
    0.010000    1.028786    0.000000    0.000000    0.000000    0.000000
    0.000000    0.000000    3.192494    3.194357    3.196015    3.199194
    3.200026    3.201287    3.202130    3.204636    3.208438    3.216575
 Highest eigenvalues
    5.217955    5.313943    5.417481    5.473542    5.683237    7.102039


........................................................................
.............................. CYCLE    1 ..............................
........................................................................

 iter      E             dE          RMSdq      gap      omega  full diag
   1    -42.7765028 -0.427765E+02  0.540E-05    3.24       0.0  T
   2    -42.7765028 -0.643041E-11  0.289E-05    3.24     692.1  T
   3    -42.7765028  0.881073E-12  0.138E-05    3.24    1448.6  T
     SCC iter.                  ...        0 min,  0.005 sec
     gradient                   ...        0 min,  0.026 sec
 * total energy  :   -30.7110821 Eh     change       -0.6633627E-10 Eh
   gradient norm :     6.7922851 Eh/α   predicted     0.0000000E+00 (-100.00%)
   displ. norm   :     0.6995906 α      lambda       -0.4725284E+01
   maximum displ.:     0.6763542 α      in ANC's #63, #60, #65, ...

........................................................................
.............................. CYCLE    2 ..............................
........................................................................

 iter      E             dE          RMSdq      gap      omega  full diag
   1    -42.7146295 -0.427146E+02  0.168E+00    2.74       0.0  T
   2    -42.7461270 -0.314975E-01  0.954E-01    3.24       1.0  T
   3    -42.7562582 -0.101311E-01  0.506E-01    3.32       1.0  T
   4    -42.7571073 -0.849169E-03  0.200E-01    3.30       1.0  T
   5    -42.7574762 -0.368893E-03  0.393E-02    3.33       1.0  T
   6    -42.7574881 -0.118778E-04  0.167E-02    3.31       1.2  T
   7    -42.7574889 -0.839548E-06  0.846E-03    3.32       2.4  T
   8    -42.7574899 -0.966318E-06  0.291E-03    3.32       6.9  T
   9    -42.7574900 -0.387265E-07  0.128E-03    3.32      15.7  T
  10    -42.7574900 -0.827590E-08  0.426E-04    3.32      46.9  T
  11    -42.7574900 -0.772850E-09  0.177E-04    3.32     112.7  T
     SCC iter.                  ...        0 min,  0.041 sec
     gradient                   ...        0 min,  0.026 sec
 * total energy  :   -34.8203645 Eh     change       -0.4109282E+01 Eh
   gradient norm :     5.0040639 Eh/α   predicted    -0.3537873E+01 ( -13.91%)
   displ. norm   :     0.7847125 α      lambda       -0.3918624E+01
   maximum displ.:     0.7339755 α      in ANC's #63, #50, #60, ...

........................................................................
.............................. CYCLE    3 ..............................
........................................................................

 iter      E             dE          RMSdq      gap      omega  full diag
   1    -42.4579933 -0.424580E+02  0.279E+00    0.21       0.0  T
   2    -42.4439315  0.140618E-01  0.230E+00    1.07       1.0  T
   3    -42.5581823 -0.114251E+00  0.590E-01    0.40       1.0  T
   4    -42.5447098  0.134725E-01  0.689E-01    0.46       1.0  T
   5    -42.5578081 -0.130983E-01  0.324E-01    0.37       1.0  T
   6    -42.5603330 -0.252498E-02  0.150E-01    0.43       1.0  T
   7    -42.5610314 -0.698341E-03  0.329E-02    0.44       1.0  T
   8    -42.5610372 -0.577605E-05  0.228E-02    0.44       1.0  T
   9    -42.5610432 -0.600581E-05  0.926E-03    0.44       2.2  T
  10    -42.5610440 -0.837029E-06  0.221E-03    0.43       9.0  T
  11    -42.5610441 -0.128823E-06  0.853E-04    0.43      23.4  T
  12    -42.5610441 -0.615922E-08  0.184E-04    0.43     108.8  T
     SCC iter.                  ...        0 min,  0.029 sec
     gradient                   ...        0 min,  0.013 sec
 * total energy  :   -38.0729750 Eh     change       -0.3252611E+01 Eh
   gradient norm :     3.4072463 Eh/α   predicted    -0.3165807E+01 (  -2.67%)
   displ. norm   :     0.7604993 α      lambda       -0.2585372E+01
   maximum displ.:     0.6775151 α      in ANC's #63, #50, #62, ...

........................................................................
.............................. CYCLE    4 ..............................
........................................................................

 iter      E             dE          RMSdq      gap      omega  full diag
   1    -42.1947177 -0.421947E+02  0.290E+00    0.80       0.0  T
   2    -42.0559772  0.138740E+00  0.390E+00    2.47       1.0  T
   3    -42.3527206 -0.296743E+00  0.197E+00    0.65       1.0  T
   4    -42.3232076  0.295130E-01  0.167E+00    0.45       1.0  T
   5    -42.4005099 -0.773023E-01  0.773E-01    0.42       1.0  T
   6    -42.3907504  0.975943E-02  0.843E-01    0.32       1.0  T
   7    -42.4120661 -0.213157E-01  0.820E-02    0.30       1.0  T
   8    -42.4119709  0.952779E-04  0.910E-02    0.30       1.0  T
   9    -42.4121693 -0.198407E-03  0.102E-02    0.31       2.0  T
  10    -42.4121602  0.907008E-05  0.193E-02    0.31       1.0  T
  11    -42.4121705 -0.102901E-04  0.142E-03    0.31      14.1  T
  12    -42.4121704  0.688923E-07  0.166E-03    0.31      12.1  T
  13    -42.4121705 -0.652239E-07  0.549E-04    0.31      36.4  T
  14    -42.4121705 -0.539121E-08  0.290E-04    0.31      69.0  T
     SCC iter.                  ...        0 min,  0.019 sec
     gradient                   ...        0 min,  0.013 sec
 * total energy  :   -40.2346527 Eh     change       -0.2161678E+01 Eh
   gradient norm :     2.2234538 Eh/α   predicted    -0.2040336E+01 (  -5.61%)
   displ. norm   :     0.7155322 α      lambda       -0.1586611E+01
   maximum displ.:     0.6507054 α      in ANC's #63, #50, #62, ...

........................................................................
.............................. CYCLE    5 ..............................
........................................................................

 iter      E             dE          RMSdq      gap      omega  full diag
   1    -42.1614771 -0.421615E+02  0.205E+00    0.29       0.0  T
   2    -41.9645685  0.196909E+00  0.313E+00    2.16       1.0  T
   3    -42.2490814 -0.284513E+00  0.891E-01    0.34       1.0  T
   4    -42.2573261 -0.824478E-02  0.430E-01    0.23       1.0  T
   5    -42.2465409  0.107853E-01  0.619E-01    0.17       1.0  T
   6    -42.2560216 -0.948075E-02  0.313E-01    0.29       1.0  T
   7    -42.2588786 -0.285700E-02  0.539E-02    0.21       1.0  T
   8    -42.2589125 -0.338774E-04  0.343E-02    0.22       1.0  T
   9    -42.2589438 -0.312325E-04  0.125E-02    0.22       1.6  T
  10    -42.2589482 -0.440590E-05  0.298E-03    0.22       6.7  T
  11    -42.2589482  0.125781E-07  0.250E-03    0.22       8.0  T
  12    -42.2589483 -0.181232E-06  0.572E-04    0.22      35.0  T
  13    -42.2589483 -0.685237E-08  0.234E-04    0.22      85.3  T
     SCC iter.                  ...        0 min,  0.017 sec
     gradient                   ...        0 min,  0.013 sec
 * total energy  :   -41.2956476 Eh     change       -0.1060995E+01 Eh
   gradient norm :     0.8047067 Eh/α   predicted    -0.1199496E+01 (  13.05%)
   displ. norm   :     0.3582247 α      lambda       -0.2788910E+00
   maximum displ.:     0.2891340 α      in ANC's #63, #50, #1, ...

........................................................................
.............................. CYCLE    6 ..............................
........................................................................

 iter      E             dE          RMSdq      gap      omega  full diag
   1    -42.1887862 -0.421888E+02  0.772E-01    0.15       0.0  T
   2    -42.0873676  0.101419E+00  0.182E+00    0.89       1.0  T
   3    -42.1931210 -0.105753E+00  0.491E-01    0.17       1.0  T
   4    -42.1978379 -0.471690E-02  0.201E-01    0.24       1.0  T
   5    -42.1981313 -0.293351E-03  0.121E-01    0.20       1.0  T
   6    -42.1985020 -0.370741E-03  0.373E-02    0.22       1.0  T
   7    -42.1985370 -0.349983E-04  0.103E-02    0.22       1.9  T
   8    -42.1985389 -0.187124E-05  0.354E-03    0.22       5.6  T
   9    -42.1985391 -0.187314E-06  0.114E-03    0.22      17.5  T
  10    -42.1985391 -0.141364E-07  0.620E-04    0.22      32.3  T
  11    -42.1985391 -0.330040E-09  0.380E-04    0.22      52.6  T
     SCC iter.                  ...        0 min,  0.015 sec
     gradient                   ...        0 min,  0.013 sec
 * total energy  :   -41.4707302 Eh     change       -0.1750827E+00 Eh
   gradient norm :     0.4082053 Eh/α   predicted    -0.1573407E+00 ( -10.13%)
   displ. norm   :     0.5314527 α      lambda       -0.9035825E-01
   maximum displ.:     0.4922991 α      in ANC's #1, #63, #33, ...

........................................................................
.............................. CYCLE    7 ..............................
........................................................................

 iter      E             dE          RMSdq      gap      omega  full diag
   1    -42.1733962 -0.421734E+02  0.126E+00    0.14       0.0  T
   2    -41.9813455  0.192051E+00  0.240E+00    1.24       1.0  T
   3    -42.1347106 -0.153365E+00  0.140E+00    0.31       1.0  T
   4    -42.1948724 -0.601618E-01  0.316E-01    0.16       1.0  T
   5    -42.1961730 -0.130063E-02  0.147E-01    0.12       1.0  T
   6    -42.1964230 -0.249927E-03  0.687E-02    0.12       1.0  T
   7    -42.1965686 -0.145638E-03  0.235E-02    0.14       1.0  T
   8    -42.1965655  0.311902E-05  0.199E-02    0.14       1.0  T
   9    -42.1965786 -0.131365E-04  0.207E-03    0.13       9.7  T
  10    -42.1965786 -0.954285E-08  0.167E-03    0.13      12.0  T
  11    -42.1965787 -0.436821E-07  0.102E-03    0.14      19.7  T
  12    -42.1965787 -0.340277E-07  0.210E-04    0.13      95.3  T
  13    -42.1965787 -0.112570E-08  0.347E-05    0.13     577.2  T
     SCC iter.                  ...        0 min,  0.018 sec
     gradient                   ...        0 min,  0.014 sec
 * total energy  :   -41.5590676 Eh     change       -0.8833737E-01 Eh
   gradient norm :     0.3617422 Eh/α   predicted    -0.5794004E-01 ( -34.41%)
   displ. norm   :     0.8630162 α      lambda       -0.1476735E+00
   maximum displ.:     0.8035627 α      in ANC's #1, #33, #26, ...

........................................................................
.............................. CYCLE    8 ..............................
........................................................................

 iter      E             dE          RMSdq      gap      omega  full diag
   1    -42.0285908 -0.420286E+02  0.281E+00    0.66       0.0  T
   2    -41.5934215  0.435169E+00  0.362E+00    1.40       1.0  T
   3    -41.9672010 -0.373779E+00  0.229E+00    0.92       1.0  T
   4    -42.1445049 -0.177304E+00  0.841E-01    0.12       1.0  T
   5    -42.1590415 -0.145367E-01  0.492E-01    0.18       1.0  T
   6    -42.1636396 -0.459806E-02  0.126E-01    0.11       1.0  T
   7    -42.1631527  0.486853E-03  0.175E-01    0.02       1.0  T
   8    -42.1639883 -0.835547E-03  0.859E-02    0.05       1.0  T
   9    -42.1642336 -0.245277E-03  0.208E-02    0.08       1.0  T
  10    -42.1642485 -0.149116E-04  0.644E-03    0.07       3.1  T
  11    -42.1642493 -0.853323E-06  0.357E-03    0.07       5.6  T
  12    -42.1642495 -0.229503E-06  0.251E-03    0.07       8.0  T
  13    -42.1642498 -0.220578E-06  0.557E-04    0.07      35.9  T
  14    -42.1642498 -0.919022E-08  0.136E-04    0.07     147.0  T
     SCC iter.                  ...        0 min,  0.050 sec
     gradient                   ...        0 min,  0.013 sec
 * total energy  :   -41.6122127 Eh     change       -0.5314512E-01 Eh
   gradient norm :     0.6447320 Eh/α   predicted    -0.1288303E+00 ( 142.41%)
   displ. norm   :     0.8250726 α      lambda       -0.2707011E+00
   maximum displ.:     0.3472525 α      in ANC's #1, #33, #63, ...

........................................................................
.............................. CYCLE    9 ..............................
........................................................................

 iter      E             dE          RMSdq      gap      omega  full diag
   1    -41.9054388 -0.419054E+02  0.308E+00    1.89       0.0  T
   2    -41.3238428  0.581596E+00  0.520E+00    1.25       1.0  T
   3    -42.2011895 -0.877347E+00  0.143E+00    0.25       1.0  T
   4    -42.2425148 -0.413253E-01  0.608E-01    0.18       1.0  T
   5    -42.2186087  0.239061E-01  0.912E-01    0.17       1.0  T
   6    -42.2030676  0.155411E-01  0.105E+00    0.44       1.0  T
   7    -42.2413918 -0.383242E-01  0.357E-01    0.21       1.0  T
   8    -42.2459420 -0.455019E-02  0.847E-02    0.13       1.0  T
   9    -42.2460168 -0.748391E-04  0.683E-02    0.13       1.0  T
  10    -42.2461629 -0.146092E-03  0.188E-02    0.12       1.1  T
  11    -42.2461745 -0.116415E-04  0.565E-03    0.11       3.5  T
  12    -42.2461754 -0.874813E-06  0.172E-03    0.11      11.6  T
  13    -42.2461755 -0.885518E-07  0.246E-04    0.11      81.5  T
  14    -42.2461755  0.880327E-08  0.502E-04    0.11      39.8  T
     SCC iter.                  ...        0 min,  0.032 sec
     gradient                   ...        0 min,  0.031 sec
 * total energy  :   -41.6521130 Eh     change       -0.3990027E-01 Eh
   gradient norm :     0.5448609 Eh/α   predicted    -0.2274922E+00 ( 470.15%)
   displ. norm   :     0.3238445 α      lambda       -0.1152920E+00
   maximum displ.:     0.2115342 α      in ANC's #1, #2, #33, ...

........................................................................
.............................. CYCLE   10 ..............................
........................................................................

 iter      E             dE          RMSdq      gap      omega  full diag
   1    -41.9465404 -0.419465E+02  0.268E+00    1.06       0.0  T
   2    -41.4907705  0.455770E+00  0.431E+00    1.50       1.0  T
   3    -42.0824329 -0.591662E+00  0.197E+00    0.64       1.0  T
   4    -42.2083116 -0.125879E+00  0.292E-01    0.04       1.0  T
   5    -42.2086134 -0.301785E-03  0.175E-01    0.04       1.0  T
   6    -42.2077641  0.849308E-03  0.183E-01    0.07       1.0  T
   7    -42.2088764 -0.111239E-02  0.546E-02    0.03       1.0  T
   8    -42.2088518  0.245979E-04  0.627E-02    0.04       1.0  T
   9    -42.2089487 -0.968747E-04  0.354E-02    0.04       1.0  T
  10    -42.2089830 -0.342544E-04  0.130E-02    0.03       1.5  T
  11    -42.2089878 -0.485491E-05  0.603E-03    0.03       3.3  T
  12    -42.2089890 -0.120855E-05  0.212E-03    0.03       9.5  T
  13    -42.2089891 -0.911241E-07  0.143E-03    0.03      14.0  T
  14    -42.2089892 -0.767486E-07  0.126E-04    0.03     158.3  T
  15    -42.2089892 -0.502148E-09  0.155E-05    0.03    1286.9  T
     SCC iter.                  ...        0 min,  0.038 sec
     gradient                   ...        0 min,  0.014 sec
 * total energy  :   -41.7139116 Eh     change       -0.6179860E-01 Eh
   gradient norm :     0.2530893 Eh/α   predicted    -0.6369414E-01 (   3.07%)
   displ. norm   :     0.1264405 α      lambda       -0.1736590E-01
   maximum displ.:     0.1129649 α      in ANC's #1, #64, #60, ...

........................................................................
.............................. CYCLE   11 ..............................
........................................................................

 iter      E             dE          RMSdq      gap      omega  full diag
   1    -42.1740204 -0.421740E+02  0.876E-01    0.29       0.0  T
   2    -41.8438261  0.330194E+00  0.290E+00    1.35       1.0  T
   3    -42.1962159 -0.352390E+00  0.255E-01    0.10       1.0  T
   4    -42.1980601 -0.184418E-02  0.139E-01    0.02       1.0  T
   5    -42.1981402 -0.801309E-04  0.106E-01    0.07       1.0  T
   6    -42.1984733 -0.333092E-03  0.246E-02    0.05       1.0  T
   7    -42.1984888 -0.155152E-04  0.135E-02    0.04       1.5  T
   8    -42.1984938 -0.500169E-05  0.516E-03    0.04       3.9  T
   9    -42.1984943 -0.459474E-06  0.319E-03    0.05       6.3  T
  10    -42.1984947 -0.403923E-06  0.334E-04    0.05      59.9  T
  11    -42.1984947 -0.810218E-09  0.214E-04    0.05      93.7  T
     SCC iter.                  ...        0 min,  0.041 sec
     gradient                   ...        0 min,  0.026 sec
 * total energy  :   -41.7288522 Eh     change       -0.1494056E-01 Eh
   gradient norm :     0.2372089 Eh/α   predicted    -0.8821670E-02 ( -40.95%)
   displ. norm   :     0.3266576 α      lambda       -0.5061637E-01
   maximum displ.:     0.2443729 α      in ANC's #1, #64, #60, ...

........................................................................
.............................. CYCLE   12 ..............................
........................................................................

 iter      E             dE          RMSdq      gap      omega  full diag
   1    -42.0992764 -0.420993E+02  0.167E+00    0.67       0.0  T
   2    -41.5854091  0.513867E+00  0.369E+00    1.61       1.0  T
   3    -42.1835107 -0.598102E+00  0.391E-01    0.16       1.0  T
   4    -42.1829361  0.574556E-03  0.362E-01    0.04       1.0  T
   5    -42.1806432  0.229291E-02  0.399E-01    0.26       1.0  T
   6    -42.1868554 -0.621221E-02  0.666E-02    0.14       1.0  T
   7    -42.1869012 -0.458161E-04  0.513E-02    0.11       1.0  T
   8    -42.1869977 -0.964825E-04  0.123E-02    0.12       1.6  T
   9    -42.1870012 -0.351133E-05  0.515E-03    0.13       3.9  T
  10    -42.1870020 -0.732720E-06  0.134E-03    0.13      14.9  T
  11    -42.1870020 -0.251743E-07  0.721E-04    0.13      27.7  T
  12    -42.1870020  0.682994E-08  0.604E-04    0.13      33.1  T
     SCC iter.                  ...        0 min,  0.028 sec
     gradient                   ...        0 min,  0.025 sec
 * total energy  :   -41.7639321 Eh     change       -0.3507994E-01 Eh
   gradient norm :     0.2107891 Eh/α   predicted    -0.2800935E-01 ( -20.16%)
   displ. norm   :     0.2266743 α      lambda       -0.2502918E-01
   maximum displ.:     0.1345786 α      in ANC's #1, #64, #63, ...

........................................................................
.............................. CYCLE   13 ..............................
........................................................................

 iter      E             dE          RMSdq      gap      omega  full diag
   1    -42.1726335 -0.421726E+02  0.848E-01    0.39       0.0  T
   2    -41.8438355  0.328798E+00  0.272E+00    0.98       1.0  T
   3    -42.1752017 -0.331366E+00  0.629E-01    0.38       1.0  T
   4    -42.1913972 -0.161954E-01  0.219E-01    0.16       1.0  T
   5    -42.1919494 -0.552251E-03  0.833E-02    0.19       1.0  T
   6    -42.1921373 -0.187920E-03  0.176E-02    0.17       1.1  T
   7    -42.1921396 -0.227878E-05  0.112E-02    0.17       1.8  T
   8    -42.1921412 -0.154696E-05  0.440E-03    0.17       4.5  T
   9    -42.1921414 -0.243135E-06  0.195E-03    0.17      10.2  T
  10    -42.1921414 -0.258701E-07  0.928E-04    0.17      21.5  T
  11    -42.1921415 -0.209148E-07  0.232E-04    0.17      86.3  T
     SCC iter.                  ...        0 min,  0.028 sec
     gradient                   ...        0 min,  0.026 sec
 * total energy  :   -41.7820693 Eh     change       -0.1813716E-01 Eh
   gradient norm :     0.1794953 Eh/α   predicted    -0.1315777E-01 ( -27.45%)
   displ. norm   :     0.2052205 α      lambda       -0.1772114E-01
   maximum displ.:     0.1109028 α      in ANC's #1, #64, #63, ...

........................................................................
.............................. CYCLE   14 ..............................
........................................................................

 iter      E             dE          RMSdq      gap      omega  full diag
   1    -42.2023274 -0.422023E+02  0.518E-01    0.21       0.0  T
   2    -42.1950045  0.732290E-02  0.557E-01    0.06       1.0  T
   3    -42.1805193  0.144852E-01  0.778E-01    0.48       1.0  T
   4    -42.2056768 -0.251575E-01  0.215E-01    0.22       1.0  T
   5    -42.2046181  0.105867E-02  0.191E-01    0.26       1.0  T
   6    -42.2062637 -0.164559E-02  0.212E-02    0.19       1.0  T
   7    -42.2062707 -0.701677E-05  0.125E-02    0.19       1.6  T
   8    -42.2062709 -0.153652E-06  0.705E-03    0.19       2.8  T
   9    -42.2062729 -0.200597E-05  0.235E-03    0.19       8.5  T
  10    -42.2062728  0.381842E-07  0.170E-03    0.19      11.7  T
  11    -42.2062729 -0.974709E-07  0.278E-04    0.19      71.9  T
  12    -42.2062729  0.157058E-09  0.184E-04    0.19     108.7  T
     SCC iter.                  ...        0 min,  0.029 sec
     gradient                   ...        0 min,  0.026 sec
 * total energy  :   -41.7946451 Eh     change       -0.1257584E-01 Eh
   gradient norm :     0.1423066 Eh/α   predicted    -0.9233693E-02 ( -26.58%)
   displ. norm   :     0.1657410 α      lambda       -0.1186600E-01
   maximum displ.:     0.0884583 α      in ANC's #1, #63, #64, ...

........................................................................
.............................. CYCLE   15 ..............................
........................................................................

 iter      E             dE          RMSdq      gap      omega  full diag
   1    -42.2190600 -0.422191E+02  0.464E-01    0.10       0.0  T
   2    -42.1612413  0.578187E-01  0.118E+00    0.69       1.0  T
   3    -42.2225894 -0.613481E-01  0.303E-01    0.13       1.0  T
   4    -42.2209411  0.164830E-02  0.366E-01    0.32       1.0  T
   5    -42.2246970 -0.375598E-02  0.165E-01    0.25       1.0  T
   6    -42.2256581 -0.961083E-03  0.488E-02    0.18       1.0  T
   7    -42.2257630 -0.104883E-03  0.139E-02    0.20       1.4  T
   8    -42.2257538  0.916584E-05  0.169E-02    0.21       1.2  T
   9    -42.2257661 -0.122513E-04  0.346E-03    0.20       5.8  T
  10    -42.2257661 -0.628578E-07  0.248E-03    0.20       8.1  T
  11    -42.2257664 -0.225170E-06  0.556E-04    0.20      36.0  T
  12    -42.2257664  0.358809E-08  0.443E-04    0.20      45.2  T
     SCC iter.                  ...        0 min,  0.029 sec
     gradient                   ...        0 min,  0.026 sec
 * total energy  :   -41.8032195 Eh     change       -0.8574370E-02 Eh
   gradient norm :     0.1232245 Eh/α   predicted    -0.6096177E-02 ( -28.90%)
   displ. norm   :     0.1672731 α      lambda       -0.1149016E-01
   maximum displ.:     0.0877614 α      in ANC's #1, #46, #44, ...

........................................................................
.............................. CYCLE   16 ..............................
........................................................................

 iter      E             dE          RMSdq      gap      omega  full diag
   1    -42.2446518 -0.422447E+02  0.447E-01    0.09       0.0  T
   2    -42.1737311  0.709207E-01  0.126E+00    0.77       1.0  T
   3    -42.2498119 -0.760808E-01  0.239E-01    0.15       1.0  T
   4    -42.2492366  0.575383E-03  0.248E-01    0.28       1.0  T
   5    -42.2509780 -0.174142E-02  0.109E-01    0.22       1.0  T
   6    -42.2512719 -0.293886E-03  0.435E-02    0.19       1.0  T
   7    -42.2513541 -0.822580E-04  0.142E-02    0.20       1.4  T
   8    -42.2513505  0.362679E-05  0.145E-02    0.21       1.4  T
   9    -42.2513598 -0.932973E-05  0.257E-03    0.20       7.8  T
  10    -42.2513598  0.454466E-08  0.178E-03    0.20      11.3  T
  11    -42.2513599 -0.108643E-06  0.470E-04    0.20      42.6  T
  12    -42.2513599  0.694036E-08  0.456E-04    0.20      43.8  T
     SCC iter.                  ...        0 min,  0.042 sec
     gradient                   ...        0 min,  0.026 sec
 * total energy  :   -41.8122761 Eh     change       -0.9056667E-02 Eh
   gradient norm :     0.1304278 Eh/α   predicted    -0.5905946E-02 ( -34.79%)
   displ. norm   :     0.2959928 α      lambda       -0.1985721E-01
   maximum displ.:     0.1385827 α      in ANC's #1, #35, #46, ...

........................................................................
.............................. CYCLE   17 ..............................
........................................................................

 iter      E             dE          RMSdq      gap      omega  full diag
   1    -42.2830640 -0.422831E+02  0.600E-01    0.05       0.0  T
   2    -42.1825977  0.100466E+00  0.147E+00    0.93       1.0  T
   3    -42.2877310 -0.105133E+00  0.371E-01    0.09       1.0  T
   4    -42.2913525 -0.362149E-02  0.212E-01    0.25       1.0  T
   5    -42.2924011 -0.104864E-02  0.106E-01    0.19       1.0  T
   6    -42.2925177 -0.116591E-03  0.511E-02    0.18       1.0  T
   7    -42.2926383 -0.120608E-03  0.130E-02    0.19       1.5  T
   8    -42.2926348  0.350266E-05  0.133E-02    0.20       1.5  T
   9    -42.2926425 -0.770615E-05  0.317E-03    0.20       6.3  T
  10    -42.2926428 -0.211768E-06  0.131E-03    0.20      15.2  T
  11    -42.2926428 -0.426236E-07  0.469E-04    0.20      42.6  T
  12    -42.2926428  0.411113E-08  0.360E-04    0.20      55.5  T
     SCC iter.                  ...        0 min,  0.029 sec
     gradient                   ...        0 min,  0.038 sec
 * total energy  :   -41.8264384 Eh     change       -0.1416224E-01 Eh
   gradient norm :     0.1314528 Eh/α   predicted    -0.1079848E-01 ( -23.75%)
   displ. norm   :     0.2180640 α      lambda       -0.1159857E-01
   maximum displ.:     0.0810287 α      in ANC's #1, #35, #46, ...

........................................................................
.............................. CYCLE   18 ..............................
........................................................................

 iter      E             dE          RMSdq      gap      omega  full diag
   1    -42.3133485 -0.423133E+02  0.347E-01    0.13       0.0  T
   2    -42.2852734  0.280751E-01  0.731E-01    0.50       1.0  T
   3    -42.3039941 -0.187207E-01  0.501E-01    0.02       1.0  T
   4    -42.3143720 -0.103779E-01  0.160E-01    0.15       1.0  T
   5    -42.3150918 -0.719720E-03  0.572E-02    0.18       1.0  T
   6    -42.3151712 -0.794043E-04  0.136E-02    0.19       1.5  T
   7    -42.3151761 -0.494760E-05  0.651E-03    0.19       3.1  T
   8    -42.3151768 -0.720748E-06  0.287E-03    0.19       7.0  T
   9    -42.3151770 -0.199438E-06  0.604E-04    0.19      33.1  T
  10    -42.3151770 -0.372489E-08  0.257E-04    0.19      77.9  T
     SCC iter.                  ...        0 min,  0.027 sec
     gradient                   ...        0 min,  0.026 sec
 * total energy  :   -41.8333155 Eh     change       -0.6877140E-02 Eh
   gradient norm :     0.1100466 Eh/α   predicted    -0.6075146E-02 ( -11.66%)
   displ. norm   :     0.0583019 α      lambda       -0.4276844E-02
   maximum displ.:     0.0308909 α      in ANC's #2, #35, #64, ...

........................................................................
.............................. CYCLE   19 ..............................
........................................................................

 iter      E             dE          RMSdq      gap      omega  full diag
   1    -42.3149470 -0.423149E+02  0.130E-01    0.19       0.0  T
   2    -42.3150962 -0.149150E-03  0.939E-02    0.19       1.0  T
   3    -42.3151448 -0.486417E-04  0.718E-02    0.17       1.0  T
   4    -42.3149471  0.197667E-03  0.707E-02    0.21       1.0  T
   5    -42.3149821 -0.349667E-04  0.764E-02    0.16       1.0  T
   6    -42.3152486 -0.266505E-03  0.808E-03    0.18       2.5  T
   7    -42.3152504 -0.178201E-05  0.392E-03    0.18       5.1  T
   8    -42.3152507 -0.328957E-06  0.122E-03    0.18      16.4  T
   9    -42.3152507 -0.261063E-07  0.455E-04    0.18      44.0  T
  10    -42.3152507 -0.163478E-08  0.227E-04    0.18      88.0  T
     SCC iter.                  ...        0 min,  0.040 sec
     gradient                   ...        0 min,  0.013 sec
 * total energy  :   -41.8369391 Eh     change       -0.3623639E-02 Eh
   gradient norm :     0.0939239 Eh/α   predicted    -0.2145753E-02 ( -40.78%)
   displ. norm   :     0.1668563 α      lambda       -0.1146044E-01
   maximum displ.:     0.0831343 α      in ANC's #2, #61, #43, ...

........................................................................
.............................. CYCLE   20 ..............................
........................................................................

 iter      E             dE          RMSdq      gap      omega  full diag
   1    -42.3096157 -0.423096E+02  0.377E-01    0.11       0.0  T
   2    -42.2833056  0.263102E-01  0.725E-01    0.47       1.0  T
   3    -42.2933103 -0.100047E-01  0.655E-01    0.06       1.0  T
   4    -42.3107995 -0.174892E-01  0.225E-01    0.10       1.0  T
   5    -42.3117685 -0.968996E-03  0.124E-01    0.13       1.0  T
   6    -42.3124180 -0.649550E-03  0.213E-02    0.16       1.0  T
   7    -42.3124329 -0.148442E-04  0.996E-03    0.16       2.0  T
   8    -42.3124351 -0.222976E-05  0.310E-03    0.16       6.4  T
   9    -42.3124352 -0.849179E-07  0.116E-03    0.16      17.2  T
  10    -42.3124352 -0.178794E-07  0.594E-04    0.16      33.7  T
  11    -42.3124352 -0.407304E-08  0.344E-04    0.16      58.2  T
     SCC iter.                  ...        0 min,  0.028 sec
     gradient                   ...        0 min,  0.026 sec
 * total energy  :   -41.8445143 Eh     change       -0.7575149E-02 Eh
   gradient norm :     0.0906650 Eh/α   predicted    -0.5889957E-02 ( -22.25%)
   displ. norm   :     0.1485555 α      lambda       -0.5292682E-02
   maximum displ.:     0.0517940 α      in ANC's #1, #43, #2, ...
 * RMSD in coord.:     0.7924846 α      energy gain  -0.1113343E+02 Eh

generating ANC from model Hessian ...
Using Lindh-Hessian (1995)
 Shifting diagonal of input Hessian by    1.0179784019635667E-002
 Lowest  eigenvalues of input Hessian
    0.010000    0.000000    0.000000    0.000000    0.000000    0.000000
    0.000000    0.011302    0.012606    0.013655    0.018097    0.019548
    0.020526    0.022058    0.025071    0.027580    0.029727    0.033686
 Highest eigenvalues
    1.774505    1.797605    2.098599    2.153815    2.343658    2.473871


........................................................................
.............................. CYCLE   21 ..............................
........................................................................

 iter      E             dE          RMSdq      gap      omega  full diag
   1    -42.3084541 -0.423085E+02  0.338E-01    0.05       0.0  T
   2    -42.2408259  0.676283E-01  0.115E+00    0.66       1.0  T
   3    -42.3108022 -0.699763E-01  0.198E-01    0.09       1.0  T
   4    -42.3120909 -0.128872E-02  0.790E-02    0.13       1.0  T
   5    -42.3122071 -0.116254E-03  0.240E-02    0.14       1.0  T
   6    -42.3122271 -0.199798E-04  0.598E-03    0.15       3.3  T
   7    -42.3122276 -0.513970E-06  0.367E-03    0.15       5.4  T
   8    -42.3122278 -0.201028E-06  0.158E-03    0.15      12.7  T
   9    -42.3122279 -0.435195E-07  0.704E-04    0.15      28.4  T
  10    -42.3122279 -0.181393E-07  0.198E-04    0.15     101.2  T
     SCC iter.                  ...        0 min,  0.027 sec
     gradient                   ...        0 min,  0.026 sec
 * total energy  :   -41.8486070 Eh     change       -0.4092694E-02 Eh
   gradient norm :     0.1014831 Eh/α   predicted     0.0000000E+00 (-100.00%)
   displ. norm   :     0.5251938 α      lambda       -0.2613063E-01
   maximum displ.:     0.2246610 α      in ANC's #3, #17, #12, ...

........................................................................
.............................. CYCLE   22 ..............................
........................................................................

 iter      E             dE          RMSdq      gap      omega  full diag
   1    -42.2557517 -0.422558E+02  0.139E+00    0.41       0.0  T
   2    -41.9525908  0.303161E+00  0.277E+00    1.51       1.0  T
   3    -42.3155435 -0.362953E+00  0.668E-01    0.32       1.0  T
   4    -42.3327568 -0.172133E-01  0.235E-01    0.04       1.0  T
   5    -42.3318846  0.872214E-03  0.227E-01    0.02       1.0  T
   6    -42.3336525 -0.176789E-02  0.478E-02    0.06       1.0  T
   7    -42.3337250 -0.724828E-04  0.201E-02    0.08       1.0  T
   8    -42.3337179  0.706148E-05  0.201E-02    0.08       1.0  T
   9    -42.3337338 -0.158636E-04  0.391E-03    0.08       5.1  T
  10    -42.3337344 -0.598159E-06  0.159E-03    0.08      12.6  T
  11    -42.3337344 -0.790327E-07  0.365E-04    0.08      54.8  T
  12    -42.3337344  0.182684E-07  0.664E-04    0.08      30.1  T
     SCC iter.                  ...        0 min,  0.047 sec
     gradient                   ...        0 min,  0.026 sec
 * total energy  :   -41.8700294 Eh     change       -0.2142242E-01 Eh
   gradient norm :     0.0713518 Eh/α   predicted    -0.1669190E-01 ( -22.08%)
   displ. norm   :     0.6800653 α      lambda       -0.2692625E-01
   maximum displ.:     0.2926536 α      in ANC's #3, #11, #12, ...

........................................................................
.............................. CYCLE   23 ..............................
........................................................................

 iter      E             dE          RMSdq      gap      omega  full diag
   1    -42.1982086 -0.421982E+02  0.197E+00    0.94       0.0  T
   2    -41.1003605  0.109785E+01  0.464E+00    0.26       1.0  T
   3    -42.3493469 -0.124899E+01  0.517E-01    0.07       1.0  T
   4    -42.3537341 -0.438719E-02  0.267E-01    0.07       1.0  T
   5    -42.3537916 -0.575361E-04  0.213E-01    0.04       1.0  T
   6    -42.3543940 -0.602384E-03  0.106E-01    0.06       1.0  T
   7    -42.3544923 -0.982685E-04  0.416E-02    0.08       1.0  T
   8    -42.3545343 -0.419925E-04  0.160E-02    0.07       1.3  T
   9    -42.3545373 -0.298405E-05  0.607E-03    0.07       3.3  T
  10    -42.3545375 -0.224729E-06  0.155E-03    0.07      12.9  T
  11    -42.3545375 -0.201570E-07  0.821E-04    0.07      24.4  T
  12    -42.3545375  0.244761E-08  0.497E-04    0.07      40.3  T
     SCC iter.                  ...        0 min,  0.029 sec
     gradient                   ...        0 min,  0.026 sec
 * total energy  :   -41.8937925 Eh     change       -0.2376309E-01 Eh
   gradient norm :     0.0831866 Eh/α   predicted    -0.1968970E-01 ( -17.14%)
   displ. norm   :     0.7758323 α      lambda       -0.3251348E-01
   maximum displ.:     0.2828595 α      in ANC's #3, #12, #11, ...

........................................................................
.............................. CYCLE   24 ..............................
........................................................................

 iter      E             dE          RMSdq      gap      omega  full diag
   1    -42.2455747 -0.422456E+02  0.194E+00    1.50       0.0  T
   2    -40.2635587  0.198202E+01  0.599E+00    0.39       1.0  T
   3    -42.3103568 -0.204680E+01  0.132E+00    0.86       1.0  T
   4    -42.3485606 -0.382038E-01  0.744E-01    0.64       1.0  T
   5    -42.3734801 -0.249195E-01  0.344E-01    0.29       1.0  T
   6    -42.3744052 -0.925106E-03  0.224E-01    0.33       1.0  T
   7    -42.3744296 -0.244084E-04  0.117E-01    0.32       1.0  T
   8    -42.3745221 -0.925151E-04  0.392E-02    0.32       1.0  T
   9    -42.3745827 -0.605690E-04  0.202E-02    0.33       1.0  T
  10    -42.3745844 -0.174190E-05  0.114E-02    0.33       1.8  T
  11    -42.3745889 -0.450532E-05  0.307E-03    0.33       6.5  T
  12    -42.3745891 -0.163569E-06  0.145E-03    0.33      13.8  T
  13    -42.3745891 -0.496187E-07  0.392E-04    0.33      51.1  T
  14    -42.3745891  0.304328E-08  0.338E-04    0.33      59.2  T
     SCC iter.                  ...        0 min,  0.032 sec
     gradient                   ...        0 min,  0.026 sec
 * total energy  :   -41.9151351 Eh     change       -0.2134260E-01 Eh
   gradient norm :     0.1323490 Eh/α   predicted    -0.2604194E-01 (  22.02%)
   displ. norm   :     0.4495203 α      lambda       -0.1943182E-01
   maximum displ.:     0.2241777 α      in ANC's #9, #3, #10, ...

........................................................................
.............................. CYCLE   25 ..............................
........................................................................

 iter      E             dE          RMSdq      gap      omega  full diag
   1    -42.3632195 -0.423632E+02  0.123E+00    1.21       0.0  T
   2    -41.3066960  0.105652E+01  0.452E+00    0.39       1.0  T
   3    -42.3830011 -0.107631E+01  0.843E-01    0.95       1.0  T
   4    -42.4125757 -0.295746E-01  0.310E-01    0.61       1.0  T
   5    -42.4155823 -0.300659E-02  0.146E-01    0.48       1.0  T
   6    -42.4155927 -0.104443E-04  0.117E-01    0.48       1.0  T
   7    -42.4156907 -0.979972E-04  0.325E-02    0.48       1.0  T
   8    -42.4156824  0.833689E-05  0.241E-02    0.48       1.0  T
   9    -42.4157024 -0.200721E-04  0.133E-02    0.49       1.5  T
  10    -42.4157103 -0.781985E-05  0.452E-03    0.49       4.4  T
  11    -42.4157110 -0.726963E-06  0.209E-03    0.49       9.6  T
  12    -42.4157111 -0.153796E-06  0.789E-04    0.49      25.3  T
  13    -42.4157112 -0.872763E-08  0.523E-04    0.49      38.2  T
     SCC iter.                  ...        0 min,  0.031 sec
     gradient                   ...        0 min,  0.026 sec
 * total energy  :   -41.9274559 Eh     change       -0.1232076E-01 Eh
   gradient norm :     0.0814558 Eh/α   predicted    -0.1167919E-01 (  -5.21%)
   displ. norm   :     0.5862170 α      lambda       -0.2775592E-01
   maximum displ.:     0.2493847 α      in ANC's #3, #12, #11, ...

........................................................................
.............................. CYCLE   26 ..............................
........................................................................

 iter      E             dE          RMSdq      gap      omega  full diag
   1    -42.4154560 -0.424155E+02  0.753E-01    0.68       0.0  T
   2    -42.4087051  0.675088E-02  0.539E-01    0.42       1.0  T
   3    -42.3900875  0.186176E-01  0.877E-01    1.06       1.0  T
   4    -42.4171338 -0.270463E-01  0.269E-01    0.65       1.0  T
   5    -42.4180140 -0.880190E-03  0.821E-02    0.61       1.0  T
   6    -42.4181880 -0.173989E-03  0.264E-02    0.61       1.0  T
   7    -42.4181998 -0.117964E-04  0.143E-02    0.60       1.4  T
   8    -42.4182031 -0.327866E-05  0.635E-03    0.60       3.2  T
   9    -42.4182034 -0.319156E-06  0.227E-03    0.60       8.8  T
  10    -42.4182035 -0.143676E-06  0.891E-04    0.60      22.5  T
  11    -42.4182035 -0.596806E-09  0.478E-04    0.60      41.9  T
     SCC iter.                  ...        0 min,  0.041 sec
     gradient                   ...        0 min,  0.026 sec
 * total energy  :   -41.9366459 Eh     change       -0.9190033E-02 Eh
   gradient norm :     0.0923846 Eh/α   predicted    -0.1864715E-01 ( 102.91%)
   displ. norm   :     0.3470285 α      lambda       -0.1302201E-01
   maximum displ.:     0.1966341 α      in ANC's #3, #2, #13, ...

........................................................................
.............................. CYCLE   27 ..............................
........................................................................

 iter      E             dE          RMSdq      gap      omega  full diag
   1    -42.4275552 -0.424276E+02  0.427E-01    0.60       0.0  T
   2    -42.4279810 -0.425800E-03  0.320E-01    0.72       1.0  T
   3    -42.4244447  0.353623E-02  0.385E-01    0.48       1.0  T
   4    -42.4287692 -0.432447E-02  0.188E-01    0.71       1.0  T
   5    -42.4297891 -0.101987E-02  0.927E-02    0.65       1.0  T
   6    -42.4300275 -0.238374E-03  0.191E-02    0.64       1.0  T
   7    -42.4300384 -0.108948E-04  0.696E-03    0.64       2.9  T
   8    -42.4300393 -0.984851E-06  0.288E-03    0.63       7.0  T
   9    -42.4300395 -0.121602E-06  0.767E-04    0.63      26.1  T
  10    -42.4300395  0.124592E-08  0.481E-04    0.63      41.6  T
     SCC iter.                  ...        0 min,  0.027 sec
     gradient                   ...        0 min,  0.026 sec
 * total energy  :   -41.9439528 Eh     change       -0.7306890E-02 Eh
   gradient norm :     0.1020380 Eh/α   predicted    -0.7295184E-02 (  -0.16%)
   displ. norm   :     0.3399700 α      lambda       -0.9836598E-02
   maximum displ.:     0.2256094 α      in ANC's #3, #1, #13, ...

........................................................................
.............................. CYCLE   28 ..............................
........................................................................

 iter      E             dE          RMSdq      gap      omega  full diag
   1    -42.4365334 -0.424365E+02  0.437E-01    0.84       0.0  T
   2    -42.3221272  0.114406E+00  0.162E+00    0.05       1.0  T
   3    -42.4421310 -0.120004E+00  0.203E-01    0.72       1.0  T
   4    -42.4431290 -0.997924E-03  0.119E-01    0.63       1.0  T
   5    -42.4430143  0.114693E-03  0.106E-01    0.61       1.0  T
   6    -42.4431989 -0.184645E-03  0.608E-02    0.62       1.0  T
   7    -42.4433375 -0.138586E-03  0.244E-02    0.63       1.0  T
   8    -42.4433622 -0.247039E-04  0.600E-03    0.64       3.3  T
   9    -42.4433634 -0.117845E-05  0.190E-03    0.65      10.5  T
  10    -42.4433634 -0.335489E-07  0.942E-04    0.65      21.2  T
  11    -42.4433634 -0.257070E-07  0.324E-04    0.65      61.7  T
     SCC iter.                  ...        0 min,  0.041 sec
     gradient                   ...        0 min,  0.026 sec
 * total energy  :   -41.9477482 Eh     change       -0.3795441E-02 Eh
   gradient norm :     0.0435572 Eh/α   predicted    -0.5486760E-02 (  44.56%)
   displ. norm   :     0.4639460 α      lambda       -0.7752700E-02
   maximum displ.:     0.3465034 α      in ANC's #3, #12, #10, ...

........................................................................
.............................. CYCLE   29 ..............................
........................................................................

 iter      E             dE          RMSdq      gap      omega  full diag
   1    -42.4504685 -0.424505E+02  0.346E-01    0.66       0.0  T
   2    -42.4502641  0.204368E-03  0.289E-01    0.78       1.0  T
   3    -42.4479273  0.233684E-02  0.295E-01    0.55       1.0  T
   4    -42.4491667 -0.123943E-02  0.259E-01    0.81       1.0  T
   5    -42.4514378 -0.227108E-02  0.855E-02    0.71       1.0  T
   6    -42.4516239 -0.186075E-03  0.185E-02    0.70       1.1  T
   7    -42.4516349 -0.110037E-04  0.475E-03    0.69       4.2  T
   8    -42.4516351 -0.219550E-06  0.253E-03    0.69       7.9  T
   9    -42.4516352 -0.635056E-07  0.817E-04    0.69      24.5  T
  10    -42.4516352 -0.106379E-07  0.298E-04    0.69      67.0  T
     SCC iter.                  ...        0 min,  0.028 sec
     gradient                   ...        0 min,  0.026 sec
 * total energy  :   -41.9535086 Eh     change       -0.5760344E-02 Eh
   gradient norm :     0.0487969 Eh/α   predicted    -0.4710733E-02 ( -18.22%)
   displ. norm   :     0.5278721 α      lambda       -0.5396151E-02
   maximum displ.:     0.4517327 α      in ANC's #3, #10, #11, ...

........................................................................
.............................. CYCLE   30 ..............................
........................................................................

 iter      E             dE          RMSdq      gap      omega  full diag
   1    -42.4546724 -0.424547E+02  0.324E-01    0.82       0.0  T
   2    -42.4441709  0.105015E-01  0.512E-01    0.50       1.0  T
   3    -42.4529843 -0.881346E-02  0.298E-01    0.88       1.0  T
   4    -42.4556376 -0.265331E-02  0.903E-02    0.77       1.0  T
   5    -42.4557653 -0.127621E-03  0.345E-02    0.74       1.0  T
   6    -42.4557971 -0.318174E-04  0.981E-03    0.74       2.0  T
   7    -42.4557992 -0.213081E-05  0.364E-03    0.73       5.5  T
   8    -42.4557992 -0.190127E-07  0.134E-03    0.73      14.9  T
   9    -42.4557993 -0.366612E-07  0.470E-04    0.73      42.5  T
  10    -42.4557993 -0.122384E-08  0.263E-04    0.73      76.0  T
     SCC iter.                  ...        0 min,  0.040 sec
     gradient                   ...        0 min,  0.026 sec
 * total energy  :   -41.9572793 Eh     change       -0.3770690E-02 Eh
   gradient norm :     0.0413683 Eh/α   predicted    -0.3449896E-02 (  -8.51%)
   displ. norm   :     0.5341125 α      lambda       -0.4108305E-02
   maximum displ.:     0.4942396 α      in ANC's #3, #2, #19, ...

........................................................................
.............................. CYCLE   31 ..............................
........................................................................

 iter      E             dE          RMSdq      gap      omega  full diag
   1    -42.4602908 -0.424603E+02  0.202E-01    0.75       0.0  T
   2    -42.4604053 -0.114446E-03  0.115E-01    0.74       1.0  T
   3    -42.4603477  0.575333E-04  0.712E-02    0.77       1.0  T
   4    -42.4600362  0.311504E-03  0.958E-02    0.70       1.0  T
   5    -42.4604136 -0.377363E-03  0.271E-02    0.76       1.0  T
   6    -42.4604395 -0.259523E-04  0.618E-03    0.75       3.2  T
   7    -42.4604404 -0.807847E-06  0.308E-03    0.75       6.5  T
   8    -42.4604405 -0.136726E-06  0.119E-03    0.75      16.9  T
   9    -42.4604405 -0.100937E-07  0.380E-04    0.75      52.6  T
  10    -42.4604405 -0.219305E-08  0.165E-04    0.75     121.1  T
     SCC iter.                  ...        0 min,  0.027 sec
     gradient                   ...        0 min,  0.026 sec
 * total energy  :   -41.9605317 Eh     change       -0.3252424E-02 Eh
   gradient norm :     0.0419374 Eh/α   predicted    -0.2640157E-02 ( -18.82%)
   displ. norm   :     0.6335179 α      lambda       -0.4928684E-02
   maximum displ.:     0.5475900 α      in ANC's #3, #11, #2, ...

........................................................................
.............................. CYCLE   32 ..............................
........................................................................

 iter      E             dE          RMSdq      gap      omega  full diag
   1    -42.4661564 -0.424662E+02  0.338E-01    0.96       0.0  T
   2    -42.4375494  0.286070E-01  0.860E-01    0.41       1.0  T
   3    -42.4685589 -0.310095E-01  0.163E-01    0.84       1.0  T
   4    -42.4685716 -0.126807E-04  0.129E-01    0.77       1.0  T
   5    -42.4688943 -0.322692E-03  0.596E-02    0.76       1.0  T
   6    -42.4690010 -0.106752E-03  0.176E-02    0.78       1.1  T
   7    -42.4690127 -0.116376E-04  0.464E-03    0.79       4.3  T
   8    -42.4690128 -0.105467E-06  0.300E-03    0.79       6.7  T
   9    -42.4690131 -0.288481E-06  0.118E-03    0.79      16.9  T
  10    -42.4690131 -0.545874E-07  0.250E-04    0.79      80.1  T
  11    -42.4690131 -0.800100E-09  0.106E-04    0.79     188.3  T
     SCC iter.                  ...        0 min,  0.041 sec
     gradient                   ...        0 min,  0.012 sec
 * total energy  :   -41.9639568 Eh     change       -0.3425085E-02 Eh
   gradient norm :     0.0279608 Eh/α   predicted    -0.3453401E-02 (   0.83%)
   displ. norm   :     0.6048658 α      lambda       -0.4178700E-02
   maximum displ.:     0.5054428 α      in ANC's #3, #9, #4, ...

........................................................................
.............................. CYCLE   33 ..............................
........................................................................

 iter      E             dE          RMSdq      gap      omega  full diag
   1    -42.4651457 -0.424651E+02  0.374E-01    0.63       0.0  T
   2    -42.4517751  0.133706E-01  0.649E-01    1.23       1.0  T
   3    -42.4682325 -0.164574E-01  0.155E-01    0.78       1.0  T
   4    -42.4679336  0.298854E-03  0.131E-01    0.75       1.0  T
   5    -42.4682901 -0.356462E-03  0.411E-02    0.76       1.0  T
   6    -42.4683421 -0.520417E-04  0.982E-03    0.77       2.0  T
   7    -42.4683453 -0.314040E-05  0.499E-03    0.78       4.0  T
   8    -42.4683459 -0.645807E-06  0.224E-03    0.77       8.9  T
   9    -42.4683460 -0.114434E-06  0.675E-04    0.77      29.6  T
  10    -42.4683460 -0.164133E-07  0.193E-04    0.77     103.9  T
     SCC iter.                  ...        0 min,  0.027 sec
     gradient                   ...        0 min,  0.026 sec
 * total energy  :   -41.9663791 Eh     change       -0.2422373E-02 Eh
   gradient norm :     0.0342714 Eh/α   predicted    -0.2853772E-02 (  17.81%)
   displ. norm   :     0.4818493 α      lambda       -0.2768061E-02
   maximum displ.:     0.3976515 α      in ANC's #3, #2, #11, ...

........................................................................
.............................. CYCLE   34 ..............................
........................................................................

 iter      E             dE          RMSdq      gap      omega  full diag
   1    -42.4738985 -0.424739E+02  0.235E-01    0.86       0.0  T
   2    -42.4689781  0.492039E-02  0.375E-01    0.62       1.0  T
   3    -42.4741712 -0.519311E-02  0.141E-01    0.85       1.0  T
   4    -42.4745643 -0.393071E-03  0.425E-02    0.80       1.0  T
   5    -42.4745840 -0.196877E-04  0.167E-02    0.79       1.2  T
   6    -42.4745909 -0.689790E-05  0.657E-03    0.80       3.0  T
   7    -42.4745919 -0.102815E-05  0.256E-03    0.80       7.8  T
   8    -42.4745919 -0.379561E-07  0.965E-04    0.80      20.7  T
   9    -42.4745920 -0.234069E-07  0.342E-04    0.80      58.5  T
     SCC iter.                  ...        0 min,  0.026 sec
     gradient                   ...        0 min,  0.025 sec
 * total energy  :   -41.9681114 Eh     change       -0.1732237E-02 Eh
   gradient norm :     0.0409804 Eh/α   predicted    -0.1705378E-02 (  -1.55%)
   displ. norm   :     0.4032113 α      lambda       -0.2374099E-02
   maximum displ.:     0.3040558 α      in ANC's #3, #4, #1, ...

........................................................................
.............................. CYCLE   35 ..............................
........................................................................

 iter      E             dE          RMSdq      gap      omega  full diag
   1    -42.4830584 -0.424831E+02  0.281E-01    1.01       0.0  T
   2    -42.4593948  0.236636E-01  0.778E-01    0.47       1.0  T
   3    -42.4855644 -0.261696E-01  0.112E-01    0.87       1.0  T
   4    -42.4856766 -0.112140E-03  0.876E-02    0.82       1.0  T
   5    -42.4857426 -0.660341E-04  0.543E-02    0.81       1.0  T
   6    -42.4858186 -0.759805E-04  0.207E-02    0.82       1.0  T
   7    -42.4858360 -0.173568E-04  0.506E-03    0.83       4.0  T
   8    -42.4858368 -0.804034E-06  0.146E-03    0.83      13.7  T
   9    -42.4858368 -0.186973E-07  0.617E-04    0.83      32.4  T
  10    -42.4858368 -0.542268E-08  0.205E-04    0.83      97.7  T
     SCC iter.                  ...        0 min,  0.027 sec
     gradient                   ...        0 min,  0.025 sec
 * total energy  :   -41.9694365 Eh     change       -0.1325101E-02 Eh
   gradient norm :     0.0338549 Eh/α   predicted    -0.1380039E-02 (   4.15%)
   displ. norm   :     0.5924524 α      lambda       -0.2764961E-02
   maximum displ.:     0.4405426 α      in ANC's #3, #1, #4, ...

........................................................................
.............................. CYCLE   36 ..............................
........................................................................

 iter      E             dE          RMSdq      gap      omega  full diag
   1    -42.4691119 -0.424691E+02  0.280E-01    0.74       0.0  T
   2    -42.4646197  0.449213E-02  0.394E-01    1.07       1.0  T
   3    -42.4699122 -0.529249E-02  0.139E-01    0.79       1.0  T
   4    -42.4698495  0.626958E-04  0.114E-01    0.83       1.0  T
   5    -42.4701604 -0.310908E-03  0.222E-02    0.83       1.0  T
   6    -42.4701734 -0.130093E-04  0.519E-03    0.82       3.9  T
   7    -42.4701736 -0.173477E-06  0.247E-03    0.82       8.1  T
   8    -42.4701737 -0.105183E-06  0.824E-04    0.82      24.3  T
   9    -42.4701737 -0.101035E-07  0.406E-04    0.82      49.3  T
     SCC iter.                  ...        0 min,  0.026 sec
     gradient                   ...        0 min,  0.025 sec
 * total energy  :   -41.9704888 Eh     change       -0.1052282E-02 Eh
   gradient norm :     0.0363779 Eh/α   predicted    -0.1867734E-02 (  77.49%)
   displ. norm   :     0.2491104 α      lambda       -0.1944866E-02
   maximum displ.:     0.1418484 α      in ANC's #3, #4, #1, ...

........................................................................
.............................. CYCLE   37 ..............................
........................................................................

 iter      E             dE          RMSdq      gap      omega  full diag
   1    -42.4770149 -0.424770E+02  0.123E-01    0.83       0.0  T
   2    -42.4770361 -0.211689E-04  0.716E-02    0.82       1.0  T
   3    -42.4769912  0.449304E-04  0.433E-02    0.84       1.0  T
   4    -42.4769208  0.704124E-04  0.544E-02    0.80       1.0  T
   5    -42.4770457 -0.124908E-03  0.517E-03    0.83       3.9  T
   6    -42.4770463 -0.581902E-06  0.283E-03    0.82       7.1  T
   7    -42.4770464 -0.971285E-07  0.157E-03    0.82      12.7  T
   8    -42.4770464 -0.410872E-07  0.599E-04    0.82      33.4  T
   9    -42.4770464 -0.641614E-08  0.224E-04    0.82      89.5  T
     SCC iter.                  ...        0 min,  0.012 sec
     gradient                   ...        0 min,  0.025 sec
 * total energy  :   -41.9718627 Eh     change       -0.1373924E-02 Eh
   gradient norm :     0.0241181 Eh/α   predicted    -0.1032781E-02 ( -24.83%)
   displ. norm   :     0.3670402 α      lambda       -0.1770207E-02
   maximum displ.:     0.1810363 α      in ANC's #4, #3, #1, ...

........................................................................
.............................. CYCLE   38 ..............................
........................................................................

 iter      E             dE          RMSdq      gap      omega  full diag
   1    -42.4864062 -0.424864E+02  0.161E-01    0.87       0.0  T
   2    -42.4851651  0.124108E-02  0.201E-01    0.72       1.0  T
   3    -42.4862238 -0.105870E-02  0.119E-01    0.88       1.0  T
   4    -42.4865643 -0.340462E-03  0.612E-02    0.83       1.0  T
   5    -42.4866405 -0.761961E-04  0.219E-02    0.83       1.0  T
   6    -42.4866522 -0.116963E-04  0.321E-03    0.83       6.2  T
   7    -42.4866523 -0.117201E-06  0.152E-03    0.83      13.1  T
   8    -42.4866523  0.525283E-08  0.668E-04    0.83      30.0  T
   9    -42.4866523 -0.100770E-07  0.248E-04    0.83      80.5  T
     SCC iter.                  ...        0 min,  0.025 sec
     gradient                   ...        0 min,  0.025 sec
 * total energy  :   -41.9731043 Eh     change       -0.1241635E-02 Eh
   gradient norm :     0.0184956 Eh/α   predicted    -0.1004350E-02 ( -19.11%)
   displ. norm   :     0.6221855 α      lambda       -0.1580899E-02
   maximum displ.:     0.3785444 α      in ANC's #3, #1, #4, ...

........................................................................
.............................. CYCLE   39 ..............................
........................................................................

 iter      E             dE          RMSdq      gap      omega  full diag
   1    -42.4773838 -0.424774E+02  0.244E-01    0.81       0.0  T
   2    -42.4773254  0.584300E-04  0.151E-01    0.84       1.0  T
   3    -42.4743487  0.297665E-02  0.275E-01    0.69       1.0  T
   4    -42.4773007 -0.295197E-02  0.701E-02    0.85       1.0  T
   5    -42.4774687 -0.168010E-03  0.251E-02    0.81       1.0  T
   6    -42.4774861 -0.173679E-04  0.534E-03    0.82       3.7  T
   7    -42.4774866 -0.507958E-06  0.212E-03    0.82       9.4  T
   8    -42.4774866  0.148958E-07  0.930E-04    0.82      21.5  T
   9    -42.4774866 -0.278556E-07  0.307E-04    0.82      65.2  T
     SCC iter.                  ...        0 min,  0.025 sec
     gradient                   ...        0 min,  0.025 sec
 * total energy  :   -41.9741141 Eh     change       -0.1009742E-02 Eh
   gradient norm :     0.0218351 Eh/α   predicted    -0.1096451E-02 (   8.59%)
   displ. norm   :     0.4400238 α      lambda       -0.1642415E-02
   maximum displ.:     0.2668225 α      in ANC's #1, #4, #3, ...

........................................................................
.............................. CYCLE   40 ..............................
........................................................................

 iter      E             dE          RMSdq      gap      omega  full diag
   1    -42.4833317 -0.424833E+02  0.185E-01    0.78       0.0  T
   2    -42.4829094  0.422323E-03  0.159E-01    0.87       1.0  T
   3    -42.4820296  0.879789E-03  0.196E-01    0.71       1.0  T
   4    -42.4834049 -0.137530E-02  0.574E-02    0.83       1.0  T
   5    -42.4835089 -0.103991E-03  0.135E-02    0.80       1.5  T
   6    -42.4835128 -0.386611E-05  0.693E-03    0.80       2.9  T
   7    -42.4835140 -0.117348E-05  0.205E-03    0.80       9.8  T
   8    -42.4835140 -0.110966E-07  0.115E-03    0.80      17.4  T
   9    -42.4835140 -0.265778E-07  0.262E-04    0.80      76.4  T
  10    -42.4835140 -0.629278E-09  0.121E-04    0.80     164.9  T
     SCC iter.                  ...        0 min,  0.027 sec
     gradient                   ...        0 min,  0.025 sec
 * total energy  :   -41.9749527 Eh     change       -0.8385866E-03 Eh
   gradient norm :     0.0189820 Eh/α   predicted    -0.9802257E-03 (  16.89%)
   displ. norm   :     0.3409480 α      lambda       -0.8485114E-03
   maximum displ.:     0.2289966 α      in ANC's #1, #3, #4, ...

........................................................................
.............................. CYCLE   41 ..............................
........................................................................

 iter      E             dE          RMSdq      gap      omega  full diag
   1    -42.4808553 -0.424809E+02  0.142E-01    0.83       0.0  T
   2    -42.4806126  0.242709E-03  0.117E-01    0.76       1.0  T
   3    -42.4803207  0.291953E-03  0.132E-01    0.88       1.0  T
   4    -42.4806988 -0.378165E-03  0.860E-02    0.79       1.0  T
   5    -42.4809379 -0.239032E-03  0.955E-03    0.81       2.1  T
   6    -42.4809403 -0.246916E-05  0.285E-03    0.81       7.0  T
   7    -42.4809405 -0.142001E-06  0.131E-03    0.81      15.2  T
   8    -42.4809405 -0.260556E-08  0.708E-04    0.81      28.2  T
   9    -42.4809405 -0.872257E-08  0.147E-04    0.81     135.9  T
     SCC iter.                  ...        0 min,  0.026 sec
     gradient                   ...        0 min,  0.025 sec
 * total energy  :   -41.9755167 Eh     change       -0.5640718E-03 Eh
   gradient norm :     0.0223984 Eh/α   predicted    -0.4735807E-03 ( -16.04%)
   displ. norm   :     0.3373457 α      lambda       -0.8776802E-03
   maximum displ.:     0.2566206 α      in ANC's #1, #2, #4, ...

........................................................................
.............................. CYCLE   42 ..............................
........................................................................

 iter      E             dE          RMSdq      gap      omega  full diag
   1    -42.4819170 -0.424819E+02  0.161E-01    0.86       0.0  T
   2    -42.4808728  0.104424E-02  0.190E-01    0.72       1.0  T
   3    -42.4816028 -0.730036E-03  0.134E-01    0.88       1.0  T
   4    -42.4820375 -0.434672E-03  0.805E-02    0.81       1.0  T
   5    -42.4821856 -0.148154E-03  0.194E-02    0.82       1.0  T
   6    -42.4821954 -0.976268E-05  0.458E-03    0.82       4.4  T
   7    -42.4821959 -0.464018E-06  0.160E-03    0.82      12.5  T
   8    -42.4821959 -0.122385E-07  0.612E-04    0.82      32.7  T
   9    -42.4821959 -0.153487E-08  0.194E-04    0.82     102.8  T
     SCC iter.                  ...        0 min,  0.025 sec
     gradient                   ...        0 min,  0.020 sec
 * total energy  :   -41.9761278 Eh     change       -0.6110763E-03 Eh
   gradient norm :     0.0248525 Eh/α   predicted    -0.4887911E-03 ( -20.01%)
   displ. norm   :     0.4600246 α      lambda       -0.1370832E-02
   maximum displ.:     0.3387606 α      in ANC's #1, #4, #2, ...
 * RMSD in coord.:     1.5719663 α      energy gain  -0.1316135E+00 Eh

generating ANC from model Hessian ...
Using Lindh-Hessian (1995)
 Shifting diagonal of input Hessian by    8.8094910596726254E-003
 Lowest  eigenvalues of input Hessian
    0.000000    0.000000    0.000000    0.000000    0.000000    0.000000
    0.010000    0.010710    0.011672    0.012396    0.014989    0.016001
    0.018298    0.019258    0.021095    0.024294    0.028096    0.030079
 Highest eigenvalues
    1.864589    1.893664    2.057006    2.422839    2.583728    3.047444


........................................................................
.............................. CYCLE   43 ..............................
........................................................................

 iter      E             dE          RMSdq      gap      omega  full diag
   1    -42.4842582 -0.424843E+02  0.237E-01    0.80       0.0  T
   2    -42.4825209  0.173726E-02  0.264E-01    0.96       1.0  T
   3    -42.4837382 -0.121733E-02  0.183E-01    0.77       1.0  T
   4    -42.4846083 -0.870088E-03  0.834E-02    0.88       1.0  T
   5    -42.4847682 -0.159836E-03  0.370E-02    0.83       1.0  T
   6    -42.4848090 -0.408254E-04  0.646E-03    0.84       3.1  T
   7    -42.4848098 -0.783338E-06  0.263E-03    0.84       7.6  T
   8    -42.4848099 -0.984569E-07  0.129E-03    0.84      15.5  T
   9    -42.4848099 -0.998779E-08  0.344E-04    0.84      58.2  T
  10    -42.4848099 -0.157114E-08  0.146E-04    0.84     137.3  T
     SCC iter.                  ...        0 min,  0.016 sec
     gradient                   ...        0 min,  0.020 sec
 * total energy  :   -41.9764959 Eh     change       -0.3680734E-03 Eh
   gradient norm :     0.0361711 Eh/α   predicted     0.0000000E+00 (-100.00%)
   displ. norm   :     0.1964148 α      lambda       -0.1494858E-02
   maximum displ.:     0.1321119 α      in ANC's #1, #2, #9, ...

........................................................................
.............................. CYCLE   44 ..............................
........................................................................

 iter      E             dE          RMSdq      gap      omega  full diag
   1    -42.4879756 -0.424880E+02  0.158E-01    0.82       0.0  T
   2    -42.4879228  0.527896E-04  0.113E-01    0.86       1.0  T
   3    -42.4865273  0.139553E-02  0.184E-01    0.74       1.0  T
   4    -42.4879601 -0.143283E-02  0.427E-02    0.85       1.0  T
   5    -42.4880166 -0.565253E-04  0.924E-03    0.84       2.2  T
   6    -42.4880187 -0.212163E-05  0.385E-03    0.84       5.2  T
   7    -42.4880191 -0.346124E-06  0.122E-03    0.84      16.4  T
   8    -42.4880191 -0.727165E-08  0.514E-04    0.84      38.9  T
   9    -42.4880191 -0.563653E-08  0.149E-04    0.84     134.2  T
     SCC iter.                  ...        0 min,  0.012 sec
     gradient                   ...        0 min,  0.012 sec
 * total energy  :   -41.9775129 Eh     change       -0.1017002E-02 Eh
   gradient norm :     0.0139674 Eh/α   predicted    -0.7778966E-03 ( -23.51%)
   displ. norm   :     0.2742228 α      lambda       -0.1024245E-02
   maximum displ.:     0.2093761 α      in ANC's #1, #2, #5, ...

........................................................................
.............................. CYCLE   45 ..............................
........................................................................

 iter      E             dE          RMSdq      gap      omega  full diag
   1    -42.4912948 -0.424913E+02  0.168E-01    0.88       0.0  T
   2    -42.4904415  0.853230E-03  0.172E-01    0.75       1.0  T
   3    -42.4907100 -0.268495E-03  0.157E-01    0.92       1.0  T
   4    -42.4914024 -0.692384E-03  0.639E-02    0.85       1.0  T
   5    -42.4914766 -0.741854E-04  0.227E-02    0.84       1.0  T
   6    -42.4914910 -0.144467E-04  0.287E-03    0.84       7.0  T
   7    -42.4914911 -0.745622E-07  0.126E-03    0.84      15.9  T
   8    -42.4914911 -0.116778E-09  0.504E-04    0.84      39.7  T
   9    -42.4914911 -0.610415E-08  0.176E-04    0.84     113.6  T
     SCC iter.                  ...        0 min,  0.012 sec
     gradient                   ...        0 min,  0.012 sec
 * total energy  :   -41.9781405 Eh     change       -0.6275910E-03 Eh
   gradient norm :     0.0185676 Eh/α   predicted    -0.5506400E-03 ( -12.26%)
   displ. norm   :     0.3107366 α      lambda       -0.7072029E-03
   maximum displ.:     0.2458513 α      in ANC's #1, #2, #4, ...

........................................................................
.............................. CYCLE   46 ..............................
........................................................................

 iter      E             dE          RMSdq      gap      omega  full diag
   1    -42.4876962 -0.424877E+02  0.218E-01    0.75       0.0  T
   2    -42.4833331  0.436310E-02  0.390E-01    1.06       1.0  T
   3    -42.4885083 -0.517518E-02  0.113E-01    0.84       1.0  T
   4    -42.4883108  0.197491E-03  0.942E-02    0.81       1.0  T
   5    -42.4885365 -0.225757E-03  0.171E-02    0.82       1.2  T
   6    -42.4885448 -0.828460E-05  0.440E-03    0.82       4.5  T
   7    -42.4885454 -0.553669E-06  0.172E-03    0.83      11.6  T
   8    -42.4885454 -0.233901E-07  0.967E-04    0.83      20.7  T
   9    -42.4885454 -0.243185E-07  0.198E-04    0.83     101.1  T
     SCC iter.                  ...        0 min,  0.012 sec
     gradient                   ...        0 min,  0.012 sec
 * total energy  :   -41.9786571 Eh     change       -0.5166392E-03 Eh
   gradient norm :     0.0178943 Eh/α   predicted    -0.3877475E-03 ( -24.95%)
   displ. norm   :     0.3043770 α      lambda       -0.7272579E-03
   maximum displ.:     0.2491809 α      in ANC's #1, #2, #6, ...

........................................................................
.............................. CYCLE   47 ..............................
........................................................................

 iter      E             dE          RMSdq      gap      omega  full diag
   1    -42.4885818 -0.424886E+02  0.146E-01    0.83       0.0  T
   2    -42.4885581  0.236934E-04  0.902E-02    0.84       1.0  T
   3    -42.4880156  0.542494E-03  0.130E-01    0.79       1.0  T
   4    -42.4884871 -0.471423E-03  0.527E-02    0.86       1.0  T
   5    -42.4885979 -0.110801E-03  0.422E-03    0.83       4.7  T
   6    -42.4885981 -0.254819E-06  0.190E-03    0.83      10.5  T
   7    -42.4885981 -0.778069E-08  0.423E-04    0.83      47.3  T
   8    -42.4885981 -0.201771E-08  0.173E-04    0.83     115.8  T
     SCC iter.                  ...        0 min,  0.011 sec
     gradient                   ...        0 min,  0.013 sec
 * total energy  :   -41.9792800 Eh     change       -0.6228487E-03 Eh
   gradient norm :     0.0145195 Eh/α   predicted    -0.3973198E-03 ( -36.21%)
[...]
H            4.11740226348693        0.98290983573695       -0.30356478170460
H            2.87204718462977        2.19985331061746        0.02071801570169
H            2.96344613713134       -1.35113116698200        1.34000215924279
H           -1.00564056794110        2.94087859201380        0.50553985545459
H           -2.11603147966201        1.81394371666328        1.31968629702441
H           -0.36003392134136        1.42365781336234        1.19933735865639
H           -1.14071525110994       -3.14371220070621        0.51491284140208
H           -1.12794018869783       -3.01924467693466       -1.26450613850949
H           -2.58663488680021       -2.59521727977577       -0.35359541108066
H            1.29181918647553       -2.84123079842111       -0.28221227532664

 Bond Distances (Angstroems)
 ---------------------------
C1-N2=1.4308         C1-H15=1.0960        C1-H16=1.0905        C1-H17=1.0888        N2-C1=1.4308         N2-C3=1.4500         
N2-C6=1.4548         C3-N2=1.4500         C3-N4=1.4566         C3-C6=1.5101         C3-H18=1.0732        N4-C3=1.4566         
N4-C5=1.3348         N4-H25=1.0103        C5-N4=1.3348         C5-C6=1.4881         C5-N13=1.3618        C6-N2=1.4548         
C6-C3=1.5101         C6-C5=1.4881         C7-O8=1.1435         C7-N9=1.2531         O8-C7=1.1435         N9-C7=1.2531         
N9-C10=1.4674        N9-C11=1.5235        C10-N9=1.4674        C10-H19=1.0859       C10-H20=1.0894       C10-H21=1.1005       
C11-N9=1.5235        C11-O12=1.1883       C11-N13=1.3541       O12-C11=1.1883       N13-C5=1.3618        N13-C11=1.3541       
N13-C14=1.4668       C14-N13=1.4668       C14-H22=1.0882       C14-H23=1.0895       C14-H24=1.0868       H15-C1=1.0960        
H16-C1=1.0905        H17-C1=1.0888        H18-C3=1.0732        H19-C10=1.0859       H20-C10=1.0894       H21-C10=1.1005       
H22-C14=1.0882       H23-C14=1.0895       H24-C14=1.0868       H25-N4=1.0103        
 C  H  Rav=1.0889 sigma=0.0067  Rmin=1.0732  Rmax=1.1005    10
 C  C  Rav=1.4991 sigma=0.0110  Rmin=1.4881  Rmax=1.5101     2
 N  H  Rav=1.0103 sigma=0.0000  Rmin=1.0103  Rmax=1.0103     1
 N  C  Rav=1.4140 sigma=0.0746  Rmin=1.2531  Rmax=1.5235    11
 O  C  Rav=1.1659 sigma=0.0224  Rmin=1.1435  Rmax=1.1883     2

 selected bond angles (degree)
 --------------------
H15-C1-N2=113.36               H16-C1-N2=107.88               H16-C1-H15=109.03              H17-C1-N2=108.46               
H17-C1-H15=109.28              H17-C1-H16=108.73              C3-N2-C1=118.50                C6-N2-C1=121.60                
C6-N2-C3= 62.65                N4-C3-N2=109.02                C6-C3-N2= 58.83                C6-C3-N4= 88.32                
H18-C3-N2=124.72               H18-C3-N4=122.52               H18-C3-C6=134.79               C5-N4-C3= 92.64                
H25-N4-C3=132.99               H25-N4-C5=134.35               C6-C5-N4= 94.00                N13-C5-N4=125.87               
N13-C5-C6=138.12               C3-C6-N2= 58.52                C5-C6-N2=103.79                C5-C6-C3= 84.74                
N9-C7-O8=175.09                C10-N9-C7=124.33               C11-N9-C7=116.84               C11-N9-C10=116.74              
H19-C10-N9=109.99              H20-C10-N9=108.88              H20-C10-H19=109.75             H21-C10-N9=107.56              
H21-C10-H19=109.80             H21-C10-H20=110.82             

 selected dihedral angles (degree)
 ---------------------------------
C3-N2-C1-H15=327.39           C3-N2-C1-H16= 88.23           C3-N2-C1-H17=205.83           C6-N2-C1-H15= 41.15           
C6-N2-C1-H16=161.98           C6-N2-C1-H17=279.58           N4-C3-N2-C1=188.82            N4-C3-N2-C6= 75.84            
C6-C3-N2-C1=112.98            H18-C3-N2-C1=347.35           H18-C3-N2-C6=234.37           C5-N4-C3-N2=308.12            
C5-N4-C3-C6=  4.22            C5-N4-C3-H18=149.03           H25-N4-C3-N2=126.81           H25-N4-C3-C6=182.91           
H25-N4-C3-H18=327.71          C6-C5-N4-C3=355.71            C6-C5-N4-H25=177.05           N13-C5-N4-C3=189.41           
N13-C5-N4-H25= 10.75          C3-C6-N2-C1=251.79            C5-C6-N2-C1=176.91            C5-C6-N2-C3=285.13            
N2-C6-C3-N4=246.51            N2-C6-C3-H18=109.73           C5-C6-C3-N2=109.70            C5-C6-C3-N4=356.20            
C5-C6-C3-H18=219.42           N2-C6-C5-N4= 59.92            N2-C6-C5-N13=223.22           C3-C6-C5-N4=  4.15            
C3-C6-C5-N13=167.45           C10-N9-C7-O8=147.50           C11-N9-C7-O8=310.44           H19-C10-N9-C7=352.81          
H19-C10-N9-C11=189.85         H20-C10-N9-C7=113.11          H20-C10-N9-C11=310.16         H21-C10-N9-C7=233.26          
H21-C10-N9-C11= 70.30         
           -------------------------------------------------
          |                Final Singlepoint                |
           -------------------------------------------------

          ...................................................
          :                      SETUP                      :
          :.................................................:
          :  # basis functions                  67          :
          :  # atomic orbitals                  67          :
          :  # shells                           39          :
          :  # electrons                        74          :
          :  max. iterations                   250          :
          :  Hamiltonian                  GFN2-xTB          :
          :  restarted?                      false          :
          :  GBSA solvation                  false          :
          :  PC potential                    false          :
          :  electronic temp.         2500.0000000     K    :
          :  accuracy                    1.0000000          :
          :  -> integral cutoff          0.2500000E+02      :
          :  -> integral neglect         0.1000000E-07      :
          :  -> SCF convergence          0.1000000E-05 Eh   :
          :  -> wf. convergence          0.1000000E-03 e    :
          :  Broyden damping             0.4000000          :
          ...................................................

 iter      E             dE          RMSdq      gap      omega  full diag
   1    -42.5126938 -0.425127E+02  0.663E-05    0.85       0.0  T
   2    -42.5126938  0.758362E-10  0.668E-05    0.85     299.5  T
   3    -42.5126938 -0.820748E-10  0.468E-05    0.85     427.2  T

   *** convergence criteria satisfied after 3 iterations ***

         #    Occupation            Energy/Eh            Energy/eV
      -------------------------------------------------------------
         1        2.0000           -0.9582633             -26.0757
       ...           ...                  ...                  ...
        31        2.0000           -0.6134154             -16.6919
        32        2.0000           -0.6124078             -16.6645
        33        2.0000           -0.6053612             -16.4727
        34        2.0000           -0.5798526             -15.7786
        35        2.0000           -0.5761909             -15.6790
        36        1.9744           -0.5147145             -14.0061
        37        1.7598           -0.4960633             -13.4986 (HOMO)
        38        0.2458           -0.4647373             -12.6461 (LUMO)
        39        0.0199           -0.4438673             -12.0782
        40        0.0001           -0.4014635             -10.9244
        41        0.0000           -0.3796836             -10.3317
        42                         -0.2586192              -7.0374
       ...                                ...                  ...
        67                          0.9847521              26.7965
      -------------------------------------------------------------
                  HL-Gap            0.0313260 Eh            0.8524 eV
             Fermi-level           -0.4802966 Eh          -13.0695 eV

 SCC (total)                   0 d,  0 h,  0 min,  0.024 sec
 SCC setup                      ...        0 min,  0.000 sec (  0.794%)
 Dispersion                     ...        0 min,  0.000 sec (  0.806%)
 classical contributions        ...        0 min,  0.000 sec (  0.290%)
 integral evaluation            ...        0 min,  0.005 sec ( 20.115%)
 iterations                     ...        0 min,  0.005 sec ( 19.204%)
 molecular gradient             ...        0 min,  0.014 sec ( 58.195%)
 printout                       ...        0 min,  0.000 sec (  0.540%)

         :::::::::::::::::::::::::::::::::::::::::::::::::::::
         ::                     SUMMARY                     ::
         :::::::::::::::::::::::::::::::::::::::::::::::::::::
         :: total energy             -41.993750752697 Eh    ::
         :: gradient norm              0.003758774979 Eh/a0 ::
         :: HOMO-LUMO gap              0.852423029415 eV    ::
         ::.................................................::
         :: SCC energy               -42.512693818498 Eh    ::
         :: -> isotropic ES            0.126628729616 Eh    ::
         :: -> anisotropic ES         -0.006363120059 Eh    ::
         :: -> anisotropic XC          0.018463860108 Eh    ::
         :: -> dispersion             -0.021328612002 Eh    ::
         :: repulsion energy           0.518680734996 Eh    ::
         :: add. restraining           0.000005186300 Eh    ::
         :: total charge               1.000000000000 e     ::
         :::::::::::::::::::::::::::::::::::::::::::::::::::::

           -------------------------------------------------
          |                Property Printout                |
           -------------------------------------------------

    * Orbital Energies and Occupations

         #    Occupation            Energy/Eh            Energy/eV
      -------------------------------------------------------------
         1        2.0000           -0.9582633             -26.0757
       ...           ...                  ...                  ...
        25        2.0000           -0.6637510             -18.0616
        26        2.0000           -0.6596249             -17.9493
        27        2.0000           -0.6475691             -17.6213
        28        2.0000           -0.6427582             -17.4903
        29        2.0000           -0.6320266             -17.1983
        30        2.0000           -0.6237880             -16.9741
        31        2.0000           -0.6134154             -16.6919
        32        2.0000           -0.6124078             -16.6645
        33        2.0000           -0.6053612             -16.4727
        34        2.0000           -0.5798526             -15.7786
        35        2.0000           -0.5761909             -15.6790
        36        1.9744           -0.5147145             -14.0061
        37        1.7598           -0.4960633             -13.4986 (HOMO)
        38        0.2458           -0.4647373             -12.6461 (LUMO)
        39        0.0199           -0.4438673             -12.0782
        40        0.0001           -0.4014635             -10.9244
        41        0.0000           -0.3796836             -10.3317
        42                         -0.2586192              -7.0374
        43                         -0.2343708              -6.3776
        44                         -0.1903238              -5.1790
        45                         -0.1598036              -4.3485
        46                         -0.1064504              -2.8967
        47                         -0.0827303              -2.2512
        48                         -0.0559270              -1.5219
       ...                                ...                  ...
        67                          0.9847521              26.7965
      -------------------------------------------------------------
                  HL-Gap            0.0313260 Eh            0.8524 eV
             Fermi-level           -0.4802966 Eh          -13.0695 eV

     #   Z          covCN         q      C6AA      α(0)
     1   6 C        3.690    -0.044    21.564     6.646
     2   7 N        2.747    -0.123    23.664     7.225
     3   6 C        4.170     0.090    19.005     6.192
     4   7 N        2.916    -0.113    23.452     7.193
     5   6 C        3.290     0.129    23.715     7.817
     6   6 C        3.097    -0.141    31.473     9.194
     7   6 C        1.806     0.333    23.781     7.880
     8   8 O        0.856    -0.077    16.183     5.393
     9   7 N        2.720    -0.023    21.703     6.919
    10   6 C        3.696    -0.084    22.284     6.753
    11   6 C        2.723     0.323    21.509     7.592
    12   8 O        0.858    -0.299    19.770     5.961
    13   7 N        2.731    -0.027    21.776     6.931
    14   6 C        3.712    -0.075    22.064     6.712
    15   1 H        0.924     0.059     2.209     2.324
    16   1 H        0.924     0.080     1.984     2.203
    17   1 H        0.925     0.076     2.020     2.222
    18   1 H        0.926     0.064     2.147     2.292
    19   1 H        0.925     0.110     1.700     2.039
    20   1 H        0.925     0.116     1.649     2.008
    21   1 H        0.923     0.131     1.528     1.933
    22   1 H        0.925     0.096     1.821     2.110
    23   1 H        0.925     0.092     1.856     2.131
    24   1 H        0.925     0.118     1.630     1.996
    25   1 H        0.860     0.189     1.164     1.690

 Mol. C6AA /au·bohr⁶  :       6467.691867
 Mol. C8AA /au·bohr⁸  :     147682.795976
 Mol. α(0) /au        :        121.357029


Wiberg/Mayer (AO) data.
largest (>0.10) Wiberg bond orders for each atom

 ---------------------------------------------------------------------------
     #   Z sym  total        # sym  WBO       # sym  WBO       # sym  WBO
 ---------------------------------------------------------------------------
     1   6 C    3.956 --     2 N    1.024    17 H    0.969    15 H    0.963
                            16 H    0.963
     2   7 N    3.032 --     1 C    1.024     3 C    0.950     6 C    0.917
     3   6 C    3.847 --     4 N    0.962    18 H    0.959     2 N    0.950
                             6 C    0.900
     4   7 N    3.507 --     5 C    1.372     3 C    0.962    25 H    0.924
     5   6 C    3.837 --     4 N    1.372    13 N    1.155     6 C    1.140
     6   6 C    3.251 --     5 C    1.140     2 N    0.917     3 C    0.900
     7   6 C    3.759 --     8 O    2.114     9 N    1.544
     8   8 O    2.428 --     7 C    2.114     9 N    0.229
     9   7 N    3.571 --     7 C    1.544    10 C    0.909    11 C    0.780
                             8 O    0.229
    10   6 C    3.860 --    19 H    0.973    20 H    0.965    21 H    0.921
                             9 N    0.909
    11   6 C    3.897 --    12 O    1.788    13 N    1.201     9 N    0.780
    12   8 O    2.141 --    11 C    1.788    13 N    0.156
    13   7 N    3.600 --    11 C    1.201     5 C    1.155    14 C    0.946
                            12 O    0.156
    14   6 C    3.915 --    22 H    0.973    23 H    0.970    24 H    0.968
                            13 N    0.946
    15   1 H    0.976 --     1 C    0.963
    16   1 H    0.989 --     1 C    0.963
    17   1 H    0.992 --     1 C    0.969
    18   1 H    0.993 --     3 C    0.959
    19   1 H    0.987 --    10 C    0.973
    20   1 H    0.986 --    10 C    0.965
    21   1 H    0.982 --    10 C    0.921
    22   1 H    0.990 --    14 C    0.973
    23   1 H    0.991 --    14 C    0.970
    24   1 H    0.985 --    14 C    0.968
    25   1 H    0.963 --     4 N    0.924
 ---------------------------------------------------------------------------

Topologies differ in total number of bonds
Writing topology from bond orders to xtbtopo.mol

molecular dipole:
                 x           y           z       tot (Debye)
 q only:       -0.029      -0.142      -0.071
   full:        0.319      -0.589      -0.168       1.756
molecular quadrupole (traceless):
                xx          xy          yy          xz          yz          zz
 q only:       -2.266      -2.315      13.946       1.837       1.503     -11.680
  q+dip:       -1.962      -6.537      15.239       2.377       0.852     -13.277
   full:       -2.159      -5.650      15.826       2.060       1.860     -13.667

           -------------------------------------------------
          |                Geometry Summary                 |
           -------------------------------------------------

      molecular mass/u    :      195.1988581
   center of mass at/Å    :       -0.2536176       0.0196324      -0.3028479
  moments of inertia/u·Å² :        0.5362026E+03   0.8756872E+03   0.1206907E+04
rotational constants/cm⁻¹ :        0.3143892E-01   0.1925075E-01   0.1396763E-01

 * 23 selected distances

     #   Z          #   Z                                           value/Å
     1   6 C        2   7 N                                       1.4308375
     2   7 N        3   6 C                                       1.4499947
     3   6 C        4   7 N                                       1.4566057
     4   7 N        5   6 C                                       1.3348480
     3   6 C        6   6 C                                       1.5100641 (max)
     7   6 C        8   8 O                                       1.1434597
     7   6 C        9   7 N                                       1.2531296
     9   7 N       10   6 C                                       1.4673991
    11   6 C       12   8 O                                       1.1883095
     5   6 C       13   7 N                                       1.3617627
    11   6 C       13   7 N                                       1.3541274
    13   7 N       14   6 C                                       1.4668187
     1   6 C       15   1 H                                       1.0959783
     1   6 C       16   1 H                                       1.0904797
     1   6 C       17   1 H                                       1.0887588
     3   6 C       18   1 H                                       1.0731892
    10   6 C       19   1 H                                       1.0859193
    10   6 C       20   1 H                                       1.0894235
    10   6 C       21   1 H                                       1.1005432
    14   6 C       22   1 H                                       1.0881551
    14   6 C       23   1 H                                       1.0894877
    14   6 C       24   1 H                                       1.0868272
     4   7 N       25   1 H                                       1.0103417 (min)

 * 5 distinct bonds (by element types)

   Z      Z             #   av. dist./Å        max./Å        min./Å
   1 H    6 C          10     1.0888762     1.1005432     1.0731892
   6 C    6 C           1     1.5100641     1.5100641     1.5100641
   1 H    7 N           1     1.0103417     1.0103417     1.0103417
   6 C    7 N           9     1.3972804     1.4673991     1.2531296
   6 C    8 O           2     1.1658846     1.1883095     1.1434597


optimized geometry written to: xtbopt.xyz


           -------------------------------------------------
          | TOTAL ENERGY              -41.993750752697 Eh   |
          | GRADIENT NORM               0.003758774979 Eh/α |
          | HOMO-LUMO GAP               0.852423029415 eV   |
           -------------------------------------------------

------------------------------------------------------------------------
 * finished run on 2024/06/05 at 19:58:02.628     
------------------------------------------------------------------------
 total:
 * wall-time:     0 d,  0 h,  0 min,  4.217 sec
 *  cpu-time:     0 d,  0 h,  0 min,  2.910 sec
 * ratio c/w:     0.690 speedup
 SCF:
 * wall-time:     0 d,  0 h,  0 min,  0.063 sec
 *  cpu-time:     0 d,  0 h,  0 min,  0.037 sec
 * ratio c/w:     0.586 speedup
 ANC optimizer:
 * wall-time:     0 d,  0 h,  0 min,  4.129 sec
 *  cpu-time:     0 d,  0 h,  0 min,  2.860 sec
 * ratio c/w:     0.693 speedup

