25
 energy: -41.993755939066 gnorm: 0.005854966151 xtb: 6.6.1 (8d0f1dd)
C            3.23257164869958        1.20906935358214        0.29231481747358
N            2.22225548507513        0.25222346048503       -0.04085606143216
C            2.18268345200534       -0.99681181709824        0.69455482869546
N            1.22617222113412       -1.89219558786124        0.05810065915868
C            0.25967190961068       -0.97163999259768        0.07463792101054
C            1.07554370601904        0.02187645008663        0.82420381942243
C           -1.52579997979672        1.73824063375618       -1.68048589963566
O           -1.55550850879687        2.16415000801735       -2.74124899440894
N           -1.44929964882225        1.18293158262730       -0.55972134727912
C           -1.22169707955478        1.89513164783455        0.70290603868902
C           -1.99092110559355       -0.23732226196595       -0.45748851675904
O           -3.15770376287355       -0.39875087992202       -0.61445400708822
N           -1.05034504892374       -1.18458347898334       -0.23017034447934
C           -1.50004161103799       -2.57633984402868       -0.34127315267775
H            3.50513136077428        1.20155212209397        1.35383393634247
H            4.11740226348693        0.98290983573695       -0.30356478170460
H            2.87204718462977        2.19985331061746        0.02071801570169
H            2.96344613713134       -1.35113116698200        1.34000215924279
H           -1.00564056794110        2.94087859201380        0.50553985545459
H           -2.11603147966201        1.81394371666328        1.31968629702441
H           -0.36003392134136        1.42365781336234        1.19933735865639
H           -1.14071525110994       -3.14371220070621        0.51491284140208
H           -1.12794018869783       -3.01924467693466       -1.26450613850949
H           -2.58663488680021       -2.59521727977577       -0.35359541108066
H            1.29181918647553       -2.84123079842111       -0.28221227532664
