25
 energy: 0.000000000000 xtb: 6.6.1 (8d0f1dd)
C            3.23720163006194        1.16630919979326        0.08434469647475
N            2.29877817382611        0.07527477071623        0.03981603040599
C            2.58028210190900       -1.21425402444508        0.03006176031096
N            1.43813958087363       -1.93419271955128        0.00098261760884
C            0.39035688448383       -1.05887472636071       -0.00790371836672
C            0.93510056364412        0.21347819449412        0.01709077491437
C            0.09450143893243        1.40504303904423       -0.00410947031874
O            0.49712751527797        2.54126714362870       -0.00342325688240
N           -1.25076640035757        1.06271879480407       -0.03085478223738
C           -2.21907211982101        2.15522099834493       -0.05001256985998
C           -1.81739487048744       -0.20012725993278       -0.04692818574614
O           -2.99983886758376       -0.37846417018721       -0.07008878229737
N           -0.92618586207120       -1.30210215599479       -0.03682761578324
C           -1.46982264913417       -2.64643102187190       -0.06029820460571
H            3.71247264356769        1.21471455160235        1.06488849150277
H            4.00791497605742        1.03430808813993       -0.67357694370751
H            2.69910007168542        2.09770118228144       -0.09130154882931
H            3.56654120610678       -1.63682992603973        0.04233140067262
H           -1.67107961066214        3.09322851271934       -0.02552706933167
H           -2.82428953597071        2.09428624779827       -0.95318082946668
H           -2.87644029173232        2.07745725625962        0.81450067533302
H           -1.17061996399332       -3.19584890659852        0.83242232437030
H           -1.14560257411436       -3.17511610292205       -0.95688275822323
H           -2.55549792440841       -2.55659984320617       -0.07459039797972
H            1.38130855184625       -2.94313852034425       -0.01389874181052
25
 energy: -1.773846204596 xtb: 6.6.1 (8d0f1dd)
C            3.25153803889552        1.19512573622684        0.09400655365031
N            2.32092478753494        0.10679141213282        0.04273729961007
C            2.62239373450723       -1.21663964751705        0.03428107666640
N            1.45630352383372       -1.93581665012473        0.00219734855426
C            0.40956635169355       -1.06483212640132       -0.01139614569790
C            0.94171957374372        0.21960838256786        0.01658376015216
C            0.11375214520904        1.39291770722928       -0.00356640111249
O            0.50845804866992        2.55899063462765        0.00184855508164
N           -1.24582544377262        1.04634807229429       -0.03782112069558
C           -2.20994526734450        2.13806575338633       -0.06234443358987
C           -1.80823517241027       -0.20381035026942       -0.05350901715633
O           -3.00358379387701       -0.38663564377962       -0.08770370497199
N           -0.93152129230967       -1.30897689869630       -0.03418082353576
C           -1.54487392481254       -2.62955349791774       -0.04145985244232
H            3.74608681454506        1.23042036378619        1.06847758389969
H            4.01046995748977        1.07891586929873       -0.68142089031602
H            2.69926995511570        2.12040456296204       -0.05907282816483
H            3.60640289735245       -1.62949005483632        0.05199975396531
H           -1.65544053417789        3.07310078470702       -0.03291566315413
H           -2.80874075242185        2.08038140270722       -0.97072092756212
H           -2.87241205023600        2.06096288446964        0.79897589642692
H           -1.11184713069799       -3.24484546635498        0.75456659385277
H           -1.31499043541666       -3.14294283511030       -0.93778959063599
H           -2.67452472976245       -2.60957427164038       -0.01389946849121
H            1.40726936658504       -2.93988752157575       -0.01083965818573
25
 energy: 9.625990065794 xtb: 6.6.1 (8d0f1dd)
C            3.26753877729540        1.23024284931892        0.10798812454710
N            2.34484961246900        0.14249876607366        0.04805988476993
C            2.67206675391821       -1.21079193954269        0.04364908500476
N            1.48714905449671       -1.93110185517970        0.00702248691411
C            0.43398203143643       -1.07944299542574       -0.01111295682208
C            0.94767074610051        0.22284233849387        0.01685438851049
C            0.14132915874726        1.37196006487177       -0.00279404553511
O            0.51549877474339        2.56205983985915        0.01115383710772
N           -1.23753373634955        1.02704754087384       -0.05034668589317
C           -2.19546802861801        2.11740727252513       -0.08269103143499
C           -1.78635662172097       -0.21029482362776       -0.06728031290622
O           -2.98944899252994       -0.39667090847405       -0.12111248845310
N           -0.93543066637283       -1.32326394295203       -0.02565338349241
C           -1.64261677532893       -2.61303469879944       -0.00939650266274
H            3.79565830891712        1.24806226262008        1.06938609220245
H            4.00942882300005        1.14740294342628       -0.69345461557506
H            2.70030853703719        2.15272694774841       -0.00621493286533
H            3.65717298854386       -1.60464077482562        0.06886869397904
H           -1.63556482048073        3.04962776164961       -0.04498825494609
H           -2.78436255995418        2.06125659892091       -0.99818506099190
H           -2.86673463527152        2.03731795534783        0.77206598873012
H           -1.02370226447188       -3.31952373155352        0.63595631338986
H           -1.59748667899589       -3.09524865028224       -0.94413248355082
H           -2.82865199004713       -2.66435758295795        0.10890574926657
H            1.46291887137264       -2.93305263593670       -0.00551399314583
25
 energy: 25.802847861441 xtb: 6.6.1 (8d0f1dd)
C            3.27929877700502        1.26036712982521        0.11909450935475
N            2.36498013930154        0.16646695585882        0.05322689806315
C            2.71212478614687       -1.19937159009387        0.05266388609261
N            1.52446858967264       -1.92535723557383        0.01539170325950
C            0.45732939516303       -1.09869755042692       -0.00264366882313
C            0.95657493673733        0.21950761705908        0.01984668758260
C            0.16428242958438        1.35862388486900       -0.00069166931735
O            0.51944747248444        2.55926477269166        0.01969976724501
N           -1.22699308188157        1.01372530973256       -0.06276284246298
C           -2.18241756588613        2.09979509906670       -0.10278419023608
C           -1.76240596968114       -0.22131336489904       -0.08444433630130
O           -2.96888767767977       -0.40906266773421       -0.15931552590729
N           -0.93167463594587       -1.34492106797817       -0.01132718338675
C           -1.71564237700043       -2.61092183059006        0.02558024000691
H            3.84096710918319        1.26091736246756        1.06460610369267
H            4.00261094570565        1.21546573906193       -0.70706646615744
H            2.70093675945255        2.18277041499465        0.04709835860718
H            3.70364820691382       -1.57319980483871        0.08372741306756
H           -1.62064648982035        3.03029613753269       -0.05635458945221
H           -2.76108562150515        2.04285328595693       -1.02487004228515
H           -2.86189615441888        2.01381581952029        0.74512857836844
H           -0.97287201539806       -3.38492545717113        0.50783030708909
H           -1.89056964904880       -3.03545793001301       -0.95384778316384
H           -2.95061158869138       -2.70311831809216        0.23832057887470
H            1.53124794754323       -2.92849410905395        0.00092716233661
25
 energy: 39.881722216521 xtb: 6.6.1 (8d0f1dd)
C            3.28669061475073        1.28044339865863        0.12308917029781
N            2.37919373442460        0.17640621021895        0.05563643856766
C            2.73682190137259       -1.18522521561023        0.05728129480054
N            1.55940318985179       -1.91871055384812        0.02544023972252
C            0.47372816379854       -1.11739230894234        0.01444955303549
C            0.96653030331233        0.21118339678006        0.02546297938361
C            0.18002599009985        1.35302958311850        0.00245738555770
O            0.52104167891362        2.55004017104176        0.02721425114899
N           -1.21588588351163        1.00612856209314       -0.07127148419189
C           -2.17172552784645        2.08695209346002       -0.11628124350706
C           -1.74165272177865       -0.23404584472025       -0.10231867876168
O           -2.94618370081518       -0.42142450213595       -0.19728948424198
N           -0.92663532886180       -1.36817986638520        0.00562808387667
C           -1.76249234939342       -2.61941061074743        0.05117836549712
H            3.87818105451989        1.26631644815798        1.05100729608324
H            3.99039748896612        1.27120974305469       -0.72345681908031
H            2.70229789802637        2.20349693310460        0.09029338468694
H            3.73731415939423       -1.54189282044238        0.09030854582402
H           -1.61074398550013        3.01682180946539       -0.06224746045434
H           -2.74257239701793        2.02906016045658       -1.04278168942931
H           -2.85687917859502        1.99438144017434        0.72624995264511
H           -0.98494337533266       -3.41949071667134        0.38099020168190
H           -2.09398548311718       -2.95663305911567       -0.91066724533741
H           -3.04312854967630       -2.74960882611210        0.32107400171543
H            1.59741697195178       -2.92442702288155        0.00558685662646
25
 energy: 47.064475423273 xtb: 6.6.1 (8d0f1dd)
C            3.28866048309106        1.28414707584892        0.12332675000212
N            2.38502437780063        0.17191094758094        0.05688270211419
C            2.73946797861402       -1.17324736330659        0.06163055008993
N            1.57939977232933       -1.91302665765489        0.03646041692397
C            0.48037167852187       -1.12479160596806        0.03213034047124
C            0.97520169166957        0.20494029164396        0.03097611489011
C            0.18468038033162        1.35689202935213        0.00224829565036
O            0.52073003237900        2.54306538553530        0.02706637282235
N           -1.20710616367914        1.00348836454533       -0.07336183125908
C           -2.16717501521604        2.08042458371596       -0.12694301490268
C           -1.73038863526668       -0.24549136995904       -0.10506022596810
O           -2.92989248642578       -0.43401136286116       -0.22007189953652
N           -0.91894316685349       -1.38182057338155        0.02457965721796
C           -1.75778982891890       -2.63723618994827        0.06268232069046
H            3.89000717552867        1.26330594003797        1.03983775948134
H            3.97884180036370        1.28917915043495       -0.72846176433582
H            2.70528105850947        2.20481418679030        0.10687889506196
H            3.74562883026891       -1.52370482668300        0.09805789545771
H           -1.61014167428172        3.01206022598650       -0.07169006231695
H           -2.73409929693405        2.02084790268194       -1.05525999676118
H           -2.85561979029033        1.98840101245508        0.71260614643998
H           -0.98515405290701       -3.43841062269566        0.25537284568957
H           -2.21567091297818       -2.84394093716396       -0.87887422728204
H           -3.08350153810649       -2.79923993604474        0.40058571725931
H            1.63440197038613       -2.91952704877029        0.01543413824706
25
 energy: 52.969655746008 xtb: 6.6.1 (8d0f1dd)
C            3.28776788127150        1.27915491293691        0.11982486452246
N            2.38478526644412        0.16236598130260        0.05736249460384
C            2.72989250329538       -1.16483662309199        0.06546703926966
N            1.58480891154177       -1.91029737083746        0.05063399396200
C            0.48047268391120       -1.12214998260230        0.05334495542203
C            0.97981826617971        0.20389773877214        0.03794047478315
C            0.18292681727992        1.36145774370858        0.00026396257875
O            0.52099956564276        2.53973454552084        0.02142081976482
N           -1.20083209072991        1.00180821355781       -0.07249064064641
C           -2.16546142850584        2.07790841228283       -0.13572483944571
C           -1.72677049816253       -0.25234662930323       -0.09724266914527
O           -2.92053109841820       -0.44212356872289       -0.22445263053760
N           -0.90959159783308       -1.38316957204907        0.05206926015939
C           -1.72486795200555       -2.65144998182855        0.06345147024205
H            3.88997517178850        1.25553612690438        1.03210125573946
H            3.96990806239869        1.28369149503965       -0.73360895493876
H            2.70421874393535        2.19736364602958        0.10656071798213
H            3.73728169101733       -1.51858952941493        0.10528274815089
H           -1.61318306748156        3.01288449278268       -0.08389884163808
H           -2.73091077374300        2.01549587566495       -1.06459151647241
H           -2.85591820079015        1.99151455384398        0.70263584534093
H           -0.96369525133604       -3.45877935081291        0.12814318110320
H           -2.27482362564083       -2.71750567455358       -0.84034824770309
H           -3.09512740648990       -2.85622791589780        0.45055220148020
H            1.64107209436648       -2.91630893706011        0.03233695156961
25
 energy: 58.419281678678 xtb: 6.6.1 (8d0f1dd)
C            3.28765966251394        1.27630134824123        0.11717290195384
N            2.38514560200317        0.15854747569989        0.05623148011262
C            2.72613115169376       -1.16225355162076        0.06640300769188
N            1.58529946632140       -1.91196441332959        0.05963003851234
C            0.48255678700495       -1.11731144136623        0.06561889784246
C            0.98195069125529        0.20679413852513        0.04210335293456
C            0.17997586731270        1.36214494356523       -0.00104256520005
O            0.52185293370984        2.54189261091343        0.01553763940924
N           -1.19810673234664        0.99864788189063       -0.07167579263050
C           -2.16565991208705        2.07538331853545       -0.13924161775030
C           -1.72517623093262       -0.25636452333530       -0.08917671456079
O           -2.91660036976411       -0.44866203810137       -0.22163540112719
N           -0.89810758370226       -1.38004366173233        0.07279444017718
C           -1.69552564420161       -2.65534657847984        0.05711451553368
H            3.88427188999089        1.25474777298505        1.03241894919371
H            3.97127611285011        1.27304463068567       -0.73409226253256
H            2.70227436651795        2.19281054253930        0.09649154537107
H            3.73181957299398       -1.52210467958277        0.10978406512236
H           -1.61616098198695        3.01289115146882       -0.09066596121676
H           -2.73152422724883        2.01120222886040       -1.06780066405853
H           -2.85625835472698        1.99304699300935        0.69952133721966
H           -0.94598364859225       -3.45726045330047        0.04425548103511
H           -2.30957063199471       -2.63698800185341       -0.80089386234382
H           -3.10227311373385       -2.90273137999578        0.46317800528165
H            1.63294799508600       -2.91739571204966        0.04500308017637
25
 energy: 64.555403913899 xtb: 6.6.1 (8d0f1dd)
C            3.28802787389723        1.27510505568339        0.11724948269701
N            2.38546155804915        0.15886708034146        0.05495726687507
C            2.72667095122324       -1.16322975632867        0.06615669729839
N            1.58307607093158       -1.91451804531421        0.06401215338438
C            0.48456782890878       -1.11225310600094        0.07012494136650
C            0.98236945668784        0.21082307352640        0.04403645172644
C            0.17714601923304        1.36158856514012       -0.00267710420662
O            0.52444150414378        2.54510336530944        0.00729454472197
N           -1.19784688753202        0.99779220090224       -0.07207928730329
C           -2.16626637129875        2.07578303258950       -0.14214664274606
C           -1.72465345933145       -0.25630289680389       -0.08159420797764
O           -2.91603790817586       -0.45067840361740       -0.21448406369219
N           -0.88909515419337       -1.37614885729274        0.08939029876394
C           -1.67263668050520       -2.65494932731663        0.04980475232880
H            3.87558838766761        1.25911868000170        1.03924674054182
H            3.97961079675244        1.26143001066449       -0.72842885343703
H            2.70159776618193        2.19112899410138        0.08348380645482
H            3.72951280132498       -1.52862913061472        0.11416033009362
H           -1.61721476823033        3.01417523753164       -0.09644585891818
H           -2.73269466157160        2.00972532089762       -1.07036380579800
H           -2.85642011494599        1.99599905300092        0.69731882375751
H           -0.91233038593453       -3.46215327948298       -0.02510652825836
H           -2.33920043562969       -2.57406991070243       -0.76329296618019
H           -3.12056714563898       -2.95501576298181        0.47388327484497
H            1.61910762592230       -2.91966259106180        0.05253364980957
25
 energy: 78.097047641459 xtb: 6.6.1 (8d0f1dd)
C            3.28908358443372        1.27535428818484        0.11866414585835
N            2.38720545693147        0.16146796353085        0.05170544277618
C            2.73212481475403       -1.16427647163275        0.05968498949210
N            1.58136315364358       -1.91950727816591        0.06401127915755
C            0.49104151873889       -1.10248348874486        0.06661610988268
C            0.98472914631803        0.21838579587968        0.04606024476986
C            0.17126862362797        1.35882842788406       -0.00417979388097
O            0.53099684090895        2.54955163089559       -0.00207970256263
N           -1.19614370653480        0.99522325436962       -0.07401532826703
C           -2.16659287929067        2.07545679583454       -0.14079700230603
C           -1.72149327588920       -0.25691570820036       -0.07727933830870
O           -2.91337655983974       -0.45498462266945       -0.20185733129259
N           -0.86713310171758       -1.37057236850298        0.10284555508097
C           -1.62417788023732       -2.65424932034557        0.02587623249094
H            3.86101667007902        1.26985229841100        1.05491827848639
H            3.99787914077487        1.24386262860740       -0.71815518589209
H            2.69905888125947        2.19207798587665        0.06146405872629
H            3.72928501149217       -1.53958530476270        0.11497629674642
H           -1.61776034034785        3.01491981932699       -0.09689977665412
H           -2.73501175000594        2.00932592372304       -1.06798230944172
H           -2.85484514463038        1.99566302216674        0.70039558023556
H           -0.90009691652925       -3.42056344449841       -0.11139134614907
H           -2.36631704593604       -2.49891711822890       -0.65355823602484
H           -3.17191198593598       -3.06447756421165        0.45304743410198
H            1.59202241186868       -2.92440854255538        0.05496359912178
25
 energy: 92.748870152174 xtb: 6.6.1 (8d0f1dd)
C            3.29289010457190        1.27723925721914        0.12347959139639
N            2.39229115641662        0.16884376123422        0.05093237032350
C            2.74537646673430       -1.16358793533873        0.05446172899569
N            1.58371071001114       -1.92343834812102        0.06486148460610
C            0.50567175737510       -1.08652320715178        0.05738388629988
C            0.99129149786711        0.23150500490752        0.04964908161275
C            0.16441768694024        1.35684076820037       -0.00743727072719
O            0.54104768175595        2.55806455036724       -0.01506718441609
N           -1.19176897925460        0.99340564175185       -0.07833957424636
C           -2.16677655482219        2.07523223452264       -0.14239656173874
C           -1.71133438098782       -0.25793138256886       -0.07207959836462
O           -2.90488817554865       -0.46225534967479       -0.18501816831351
N           -0.82796320448650       -1.36415875369738        0.11768771661712
C           -1.54034665957916       -2.65292187477662       -0.00640009471697
H            3.84365553932284        1.28581218687967        1.07936404331704
H            4.02481790681767        1.21971820186335       -0.70186801762343
H            2.69823646843977        2.19502967617513        0.03353800498911
H            3.73375848218478       -1.55070033352642        0.12071833426761
H           -1.61974478495578        3.01679736207151       -0.10132583177948
H           -2.73732237862976        2.00768080080227       -1.06845834838064
H           -2.85352520379141        1.99530797336493        0.70021812436736
H           -0.85566758821648       -3.37912159239415       -0.25493483926180
H           -2.46828346846803       -2.37232230652159       -0.49154209025517
H           -3.28604123955632       -3.25154996114154        0.44154827932923
H            1.55871182779544       -2.92793777227487        0.05805882984946
25
 energy: 99.920687266488 xtb: 6.6.1 (8d0f1dd)
C            3.29596217924964        1.27969364060744        0.12800238312751
N            2.39585520415682        0.17934480985595        0.05804852514020
C            2.76086767089973       -1.16175031626201        0.05577075237086
N            1.58924896905487       -1.92119711823487        0.06151027572316
C            0.51895637439934       -1.07465166974535        0.03754687738413
C            0.99808195875447        0.24142176941855        0.05280622624900
C            0.16179847254859        1.35859441885864       -0.00725688457729
O            0.54863291979627        2.56483975075482       -0.01424123214279
N           -1.18755798853183        1.00004672609707       -0.08068926779602
C           -2.16640749272316        2.07969461354610       -0.14290163946281
C           -1.69950921732383       -0.25204047578004       -0.07345476550219
O           -2.89743985338482       -0.45746493575665       -0.17765708666671
N           -0.79753511911212       -1.35993344395129        0.10120613928307
C           -1.47980958385751       -2.63602293363269       -0.03026615768697
H            3.84483835674657        1.29141796124163        1.09044434707783
H            4.03522636560228        1.21321591958713       -0.69850698052780
H            2.69986281131731        2.20077176429580        0.03027825061707
H            3.74315620426745       -1.54895120781014        0.12259373870304
H           -1.62080843088300        3.02139074939366       -0.10175050543353
H           -2.73687525494654        2.00946229143546       -1.06901841212949
H           -2.85363931246870        1.99567216686885        0.69885522961717
H           -0.80713126189929       -3.38707576967073       -0.30679901913813
H           -2.54270978232233       -2.35210786126367       -0.36541971068841
H           -3.43756875692232       -3.36961150966624        0.40736274416493
H            1.54671923551825       -2.92573073801530        0.05057006844139
25
 energy: 101.677181063713 xtb: 6.6.1 (8d0f1dd)
C            3.29704660122206        1.27799703340642        0.12879516621737
N            2.39689073307093        0.19268056753971        0.07891057551388
C            2.78032162113778       -1.16431821740926        0.07143880170333
N            1.59881665662623       -1.90440769258392        0.05904560568076
C            0.53330289873212       -1.06531356103726        0.00737676203381
C            1.01233714892543        0.24486783289316        0.05497111733585
C            0.16521070943849        1.36969783294521       -0.00534572809359
O            0.54682741145795        2.56401125124643       -0.00132939908363
N           -1.18501787621167        1.02643954855101       -0.07514043274763
C           -2.16715307629846        2.08986922144351       -0.14199528781086
C           -1.68294485381869       -0.23242931524888       -0.07113585769757
O           -2.89218814807927       -0.43583937325537       -0.17898273286665
N           -0.77105020892066       -1.35430164600998        0.02949053994116
C           -1.40401903958180       -2.55139953440716       -0.06279361820458
H            3.86357296751048        1.28597557953679        1.07886326093201
H            4.02575462690865        1.23247270810927       -0.70634449764063
H            2.70911165360748        2.20451466823286        0.05433738282145
H            3.75805124419072       -1.52893973700986        0.11726587577373
H           -1.61971191137257        3.02406487058371       -0.09868728434265
H           -2.73413965478240        2.00981184600513       -1.06910799715836
H           -2.85534147453213        1.99411524707239        0.69637029306410
H           -0.71340460249130       -3.51792982841954       -0.18514696633247
H           -2.57378606320241       -2.48635967503965       -0.31838138992840
H           -3.74662876123153       -3.37463671991201        0.32890883564382
H            1.57035606563069       -2.91161430506061        0.03565087139302
25
 energy: 97.052561718963 xtb: 6.6.1 (8d0f1dd)
C            3.30108488075072        1.27495287353561        0.12785664050022
N            2.39857549336493        0.18134789128398        0.07748922461635
C            2.76610509276595       -1.15528129056320        0.07117289510092
N            1.61041291278788       -1.89556251054116        0.05209930710166
C            0.53227547405378       -1.06141428262664        0.00563276898755
C            1.02421833418287        0.24861838221951        0.04498482795878
C            0.17165210528244        1.38137723894662       -0.00784819655185
O            0.54507385157149        2.56245632227732        0.00627902400258
N           -1.17553370344350        1.03010308158951       -0.07388449752270
C           -2.16194472003859        2.08898058584671       -0.13338856555072
C           -1.68174670495539       -0.23369270378945       -0.08812237208772
O           -2.88261154913463       -0.43709443253305       -0.17907119939855
N           -0.76648162746820       -1.35781138839502       -0.00338865108190
C           -1.34885221465187       -2.53279128213347       -0.08301763684781
H            3.86080812417927        1.28377201395155        1.07219038508280
H            4.02424995969537        1.23646249598857       -0.69793778460970
H            2.71816504036865        2.19893433372695        0.05622288584892
H            3.75496489303202       -1.51809183058767        0.11404584424232
H           -1.62118165930878        3.02709633455985       -0.08731349737631
H           -2.73157685870519        2.01186605438879       -1.05862516874682
H           -2.85001747036582        1.98966342891519        0.70458720193873
H           -0.66654119095192       -3.50658352814876       -0.12360307841439
H           -2.54517455723633       -2.51339111078977       -0.23410514850280
H           -3.95657640730764       -3.40967333396479        0.23990707135006
H            1.59286716946861       -2.90521474098508        0.02487161610763
25
 energy: 87.845334040168 xtb: 6.6.1 (8d0f1dd)
C            3.31142524697631        1.27398546746008        0.12150749818568
N            2.40921499109589        0.14128482320425        0.06556292029728
C            2.71832087933134       -1.13231720157130        0.06692801947429
N            1.63240467399413       -1.88071785536599        0.04068841580000
C            0.51785969299363       -1.06657727932960        0.03626112609801
C            1.04097821571069        0.24986220611055        0.02867430777564
C            0.19517298116163        1.40503089275341       -0.00561367684334
O            0.53530984863296        2.55906021775680        0.01564424640848
N           -1.16023711066544        1.02451361158226       -0.06396596162317
C           -2.15451503822328        2.08112384816008       -0.12329163507103
C           -1.69370061312367       -0.24367631207036       -0.09909205382111
O           -2.86862227994783       -0.44764498174825       -0.18496486502420
N           -0.80043896430073       -1.36663183354178       -0.01905143290542
C           -1.37056729478994       -2.57298871565619       -0.08074078475099
H            3.86303853876987        1.27507670632162        1.04917865180322
H            4.00605665364157        1.25165277210590       -0.69740416443545
H            2.72430896349077        2.18412346517825        0.06542114921164
H            3.73839771630606       -1.50207969287353        0.10377534248474
H           -1.62557938977387        3.02954170246137       -0.07616521208327
H           -2.72953408650564        2.01236127462628       -1.04616282031689
H           -2.84441015975257        1.98847721190329        0.71519755513093
H           -0.68701191252566       -3.47867804076209       -0.02239440513709
H           -2.38950451759324       -2.58298377496136       -0.22823678333289
H           -4.09787004068783       -3.31898747067774        0.14760996386567
H            1.64171767372100       -2.89378243889388        0.01766849495651
25