25
 energy: 0.000000000000 xtb: 6.6.1 (8d0f1dd)
C            3.23720163006194        1.16630919979326        0.08434469647475
N            2.29877817382611        0.07527477071623        0.03981603040599
C            2.58028210190900       -1.21425402444508        0.03006176031096
N            1.43813958087363       -1.93419271955128        0.00098261760884
C            0.39035688448383       -1.05887472636071       -0.00790371836672
C            0.93510056364412        0.21347819449412        0.01709077491437
C            0.09450143893243        1.40504303904423       -0.00410947031874
O            0.49712751527797        2.54126714362870       -0.00342325688240
N           -1.25076640035757        1.06271879480407       -0.03085478223738
C           -2.21907211982101        2.15522099834493       -0.05001256985998
C           -1.81739487048744       -0.20012725993278       -0.04692818574614
O           -2.99983886758376       -0.37846417018721       -0.07008878229737
N           -0.92618586207120       -1.30210215599479       -0.03682761578324
C           -1.46982264913417       -2.64643102187190       -0.06029820460571
H            3.71247264356769        1.21471455160235        1.06488849150277
H            4.00791497605742        1.03430808813993       -0.67357694370751
H            2.69910007168542        2.09770118228144       -0.09130154882931
H            3.56654120610678       -1.63682992603973        0.04233140067262
H           -1.67107961066214        3.09322851271934       -0.02552706933167
H           -2.82428953597071        2.09428624779827       -0.95318082946668
H           -2.87644029173232        2.07745725625962        0.81450067533302
H           -1.17061996399332       -3.19584890659852        0.83242232437030
H           -1.14560257411436       -3.17511610292205       -0.95688275822323
H           -2.55549792440841       -2.55659984320617       -0.07459039797972
H            1.38130855184625       -2.94313852034425       -0.01389874181052
25
 energy: -5.275970859788 xtb: 6.6.1 (8d0f1dd)
C            3.27595220761341        1.16905139989857        0.08862601108170
N            2.31386039878639        0.10098342167558        0.03929141683546
C            2.59689421885665       -1.22815433077162        0.02973034650734
N            1.42363965627952       -1.93354347338808        0.00043070921286
C            0.39360131748190       -1.04918352253826       -0.00840871201265
C            0.93069753791579        0.23028649948931        0.01576277380687
C            0.09268897105681        1.39967486639857       -0.00562298184572
O            0.48335113039605        2.56739621767173       -0.00493628923549
N           -1.26988752409028        1.05066994518410       -0.03187470215201
C           -2.23602022212514        2.14263167011480       -0.05092107060503
C           -1.83067183390133       -0.20153930233654       -0.04795211990554
O           -3.02697159527823       -0.38738176944356       -0.07116998744902
N           -0.93748934099830       -1.29814411098239       -0.03735219282315
C           -1.47429032989970       -2.64160835275640       -0.06000709824989
H            3.77012830963337        1.21854600016884        1.06541100603166
H            4.05105193359893        1.03980430970780       -0.67283161116002
H            2.72043386795026        2.08850825858231       -0.08399182521357
H            3.57347801652724       -1.65605871563327        0.04177274061074
H           -1.67977838243555        3.07685235168279       -0.02705615033017
H           -2.84242250396141        2.08651974960110       -0.95468581709123
H           -2.89396385685180        2.07051810298139        0.81471589244336
H           -1.17124615599882       -3.19288088183825        0.83221695919749
H           -1.14622136143756       -3.17315819378144       -0.95545251803997
H           -2.56009026282496       -2.55353913728846       -0.07441452809435
H            1.35549047164299       -2.93722240022659       -0.01424635537240
25
 energy: -5.128874384737 xtb: 6.6.1 (8d0f1dd)
C            3.34252724840204        1.16038461327954        0.09473479424871
N            2.33377838599252        0.12836894265667        0.03976884619506
C            2.60506374758896       -1.23625946232252        0.03022230013993
N            1.40243880062894       -1.91823831221946        0.00011416497090
C            0.39488962817110       -1.02723847378049       -0.00898112337252
C            0.92815451692783        0.25885081202282        0.01469703250035
C            0.08399336084885        1.39576258940380       -0.00809261632895
O            0.44134138097004        2.58757220692994       -0.00793434803811
N           -1.30015276582161        1.03870022108227       -0.03417785836955
C           -2.27029926987294        2.12407330206320       -0.05334444088065
C           -1.84589273726777       -0.20374387340335       -0.04983596948242
O           -3.04732949695325       -0.40459178626274       -0.07326864440520
N           -0.94873088101651       -1.28676531696018       -0.03818522658068
C           -1.47652095115429       -2.63140248633951       -0.05916729453948
H            3.87438211972606        1.20437706470971        1.05931564141256
H            4.12149466783888        1.03493707049997       -0.67183344588374
H            2.78635718803974        2.07996918708958       -0.06454668108290
H            3.57049978214390       -1.67555733602384        0.04086693075108
H           -1.71022701760233        3.05618122953582       -0.03110302801227
H           -2.88025098130853        2.06772357569069       -0.95595339436414
H           -2.92980377262621        2.05361885556652        0.81251989634477
H           -1.17246182458531       -3.18490652129227        0.83293191722532
H           -1.14723822799073       -3.16756171645972       -0.95304421024424
H           -2.56316074926777       -2.54653961998600       -0.07388667551393
H            1.31936251612462       -2.91868616330843       -0.01478267054264
25
 energy: -0.879064636456 xtb: 6.6.1 (8d0f1dd)
C            3.43558079604679        1.13709985000571        0.10175055799940
N            2.35758077814526        0.15618652158777        0.04229236769588
C            2.60434935117608       -1.23641655278787        0.03182867908158
N            1.38089089785097       -1.89195106138582        0.00021407851574
C            0.39421601941184       -0.99429172676397       -0.00923836429622
C            0.92896712440942        0.29824823494097        0.01505436098748
C            0.06549435812727        1.40569404111092       -0.01072130189594
O            0.37678605215814        2.61556050638634       -0.01156822184365
N           -1.33906506348333        1.03324964398145       -0.03793058310501
C           -2.32537126372201        2.10163142551322       -0.05788164246820
C           -1.86494484242182       -0.20664216529777       -0.05274528554641
O           -3.06686404161463       -0.42955219974147       -0.07689191906633
N           -0.95645902985813       -1.26962376705968       -0.03920765302383
C           -1.47391442590750       -2.61741108929654       -0.05743879759144
H            4.01800504892574        1.15559510371717        1.04757349746656
H            4.21213632283090        1.00625007971885       -0.67502372826712
H            2.90745290067500        2.07580339238430       -0.03105063236655
H            3.55925117411727       -1.69213950584710        0.03920425533727
H           -1.77583189775471        3.03899468191583       -0.03876437028147
H           -2.94038298259983        2.03394675374790       -0.95759418133725
H           -2.98618218363402        2.02324116168598        0.80761643717990
H           -1.17164794894162       -3.17081983368048        0.83596796052389
H           -1.14594204798267       -3.15756743025864       -0.95004845718995
H           -2.56185720296858       -2.53550282874399       -0.07270457976458
H            1.27996677495041       -2.89055463366107       -0.01565858059643
25
 energy: 8.232515095342 xtb: 6.6.1 (8d0f1dd)
C            3.54476898942242        1.11204538457301        0.11084868325738
N            2.38676919189350        0.18837547806702        0.04701378445994
C            2.60168039267607       -1.23223831840826        0.03522174867186
N            1.36187227833943       -1.86040800626023        0.00087744321231
C            0.39266197072492       -0.95912653296992       -0.00932421573256
C            0.92961062358038        0.34171930998160        0.01649405697452
C            0.04115194525152        1.41623805578150       -0.01429916856005
O            0.28967522028569        2.64076313915330       -0.01672544282805
N           -1.38792715043167        1.02341201897049       -0.04395389821655
C           -2.38149261182303        2.08069603399777       -0.06449353248648
C           -1.89013323302443       -0.21780735763168       -0.05741160138687
O           -3.08994288167273       -0.46817190705976       -0.08272975090368
N           -0.96471604144520       -1.25649780060197       -0.04078743838896
C           -1.47571549972124       -2.60772532227973       -0.05460061329846
H            4.19293377052326        1.10017730172495        1.02935781234099
H            4.31446876424487        0.99706771761211       -0.68690639610859
H            3.03709867520577        2.06832048869706        0.02336801534948
H            3.54684027085290       -1.70394126698302        0.03577609375594
H           -1.83002485441189        3.01583187020428       -0.05058148020084
H           -3.00295958763328        2.00679917892532       -0.96063651867849
H           -3.04207420912849        2.00242807847360        0.80256680173374
H           -1.18347043833000       -3.16222906490119        0.84160393850160
H           -1.15595997351527       -3.15591966685567       -0.94547863483084
H           -2.56537991056137       -2.52291973354748       -0.07133753309620
H            1.24247896663405       -2.85786047649107       -0.01682825739389
25
 energy: 17.535162607547 xtb: 6.6.1 (8d0f1dd)
C            3.63842626510882        1.08427194987474        0.11760277459186
N            2.41074362945327        0.21222719103802        0.04894566542703
C            2.59893697900033       -1.22473972078382        0.03649861640301
N            1.34911590256984       -1.83386186424203        0.00074018336557
C            0.39083109676506       -0.92743117094117       -0.00955967965383
C            0.93143083627603        0.37817618646024        0.01700849572683
C            0.01901724327271        1.43271713509986       -0.01699924562534
O            0.22588416957066        2.66675806226830       -0.02061597835649
N           -1.42574322491579        1.02155885424604       -0.04856945419628
C           -2.43806212516922        2.06150484173599       -0.07026614795770
C           -1.91027117128508       -0.22173528114239       -0.06078864790399
O           -3.10850889340834       -0.49201889582893       -0.08699827587385
N           -0.96930062028273       -1.24205542033760       -0.04154869710047
C           -1.47349314950737       -2.59668149990499       -0.05139924523918
H            4.32934074586072        1.03409573845596        1.01629883986612
H            4.40117411149876        0.96887963459833       -0.69416958033792
H            3.16487496593996        2.06140341794026        0.06697862510051
H            3.53623560470082       -1.70918009697440        0.03137294267984
H           -1.90292631911615        3.00550316714983       -0.06156141810494
H           -3.06495616156899        1.97439089490243       -0.96268040494186
H           -3.09822767185361        1.97600171456369        0.79745498256795
H           -1.18578793757609       -3.14978297350519        0.84719029314934
H           -1.15736059172512       -3.14945199227140       -0.94081383626593
H           -2.56436648158851       -2.51193041041002       -0.06907455989390
H            1.21520746591623       -2.82959085981979       -0.01801235127909
25
 energy: 25.290248137994 xtb: 6.6.1 (8d0f1dd)
C            3.72860920756574        1.05004535851006        0.12318729287525
N            2.43323533289430        0.22856112206020        0.04826741534019
C            2.59273616473767       -1.20806123936729        0.03683798459121
N            1.34584883240082       -1.80792353853316       -0.00017900113161
C            0.38665436777369       -0.89777751709691       -0.01023422134884
C            0.93327184919493        0.40916906035515        0.01635580790363
C           -0.00517549408082        1.45643220707374       -0.01958527949752
O            0.17382238513113        2.68632582073054       -0.02403293111678
N           -1.45847185873144        1.02718897409517       -0.05294554189835
C           -2.49533850162925        2.04675017502310       -0.07587021465229
C           -1.92941186489377       -0.22310933061473       -0.06368374431454
O           -3.12306246089078       -0.50788929952791       -0.09042447407089
N           -0.97051575463067       -1.22885664171039       -0.04179887296044
C           -1.46992267086803       -2.58754571276298       -0.04711290609833
H            4.43932861531952        0.95693598837243        1.00554180900365
H            4.48524254367392        0.93636096407480       -0.69893168582342
H            3.29364410689806        2.04304727112207        0.10799487196469
H            3.52541050945390       -1.70138689147900        0.02434441061630
H           -1.98937289051533        3.00683633312676       -0.07369563784917
H           -3.12676635276603        1.94008035154884       -0.96401673284501
H           -3.15335322850035        1.94927505214323        0.79302208999000
H           -1.18629642355189       -3.13704455612204        0.85428213477540
H           -1.15748626374758       -3.14310758279896       -0.93534039089752
H           -2.56190012831878       -2.50302902637518       -0.06553053391474
H            1.20148464601721       -2.80224873967553       -0.01941775249361
25
 energy: 27.935758378378 xtb: 6.6.1 (8d0f1dd)
C            3.80158777489224        1.00252311296830        0.12543974730721
N            2.44916672832469        0.22376692221112        0.04438418465584
C            2.57367728197266       -1.16698765331367        0.03712278027676
N            1.36191693664434       -1.78221773795741       -0.00182472931570
C            0.37540991463258       -0.87274889665434       -0.01115244917285
C            0.93457541027131        0.42651335402060        0.01468231116892
C           -0.03194412505852        1.49814805803620       -0.02075714997972
O            0.14550948552566        2.69742899033271       -0.02500746345876
N           -1.47155886867613        1.04815251817030       -0.05625008441075
C           -2.54783875940296        2.03923869095875       -0.08102228094412
C           -1.94255394849685       -0.21845654165786       -0.06526762406786
O           -3.12436062576089       -0.50342396443252       -0.09227127955041
N           -0.96287611335286       -1.21771076463229       -0.04103388743400
C           -1.46169275492039       -2.58172093699612       -0.04160804888305
H            4.48783460824515        0.85279071883833        0.99736837964990
H            4.54840660918987        0.88560232593403       -0.70183975930320
H            3.41914186770379        2.00584908533848        0.14120910418373
H            3.51009173811417       -1.66339758569214        0.01358800451646
H           -2.10196250356530        3.03116712246047       -0.08673071450370
H           -3.18061820406980        1.89912024159590       -0.96426093986683
H           -3.20108350142371        1.91802049147581        0.78911962390589
H           -1.17878459631311       -3.12200882869536        0.86307367228527
H           -1.15059843849970       -3.13415197007157       -0.92946001837856
H           -2.55435688984891       -2.49979754423480       -0.06024825519202
H            1.21512564180886       -2.77667060583093       -0.02021922734117
25
 energy: 34.285241528466 xtb: 6.6.1 (8d0f1dd)
C            3.86562355252644        0.96424855082990        0.13070832514677
N            2.46037474700739        0.23684852874440        0.03900236348991
C            2.56412924947442       -1.14303598619559        0.03170773429706
N            1.35404993709204       -1.75712165196336       -0.00535722775188
C            0.37043134613103       -0.84333724126086       -0.01288163122215
C            0.93163460896671        0.45688040282666        0.01160894752145
C           -0.04792369204351        1.52517815158955       -0.02201709994344
O            0.10791979642778        2.73854494170321       -0.02546022063230
N           -1.48129248962850        1.05815083258629       -0.05870980889849
C           -2.59424250888552        2.02060099141168       -0.08704433702959
C           -1.94791746993530       -0.20904132784747       -0.06612712303844
O           -3.12882389397555       -0.50027245556710       -0.09349802591573
N           -0.96356977573721       -1.19902373596342       -0.04005503994480
C           -1.45157511668028       -2.56741431265607       -0.03573091736329
H            4.55814306755696        0.74831982539370        0.99687414591024
H            4.60220456036302        0.82114999534453       -0.70415764859849
H            3.53251855259761        1.99039941959709        0.17383295087903
H            3.49794874805510       -1.64556158340248        0.00348755973410
H           -2.20504344117235        3.03970905012462       -0.09932190197012
H           -3.22813566028872        1.84734398281306       -0.96659419750730
H           -3.24584545410446        1.87520753049569        0.78274508810793
H           -1.16157420874004       -3.10145265659655        0.87068614525056
H           -1.13455343116046       -3.11975540745388       -0.92185474449471
H           -2.54453996928322       -2.49689458423304       -0.05391063559837
H            1.20227361337280       -2.75064265814860       -0.02089880428068
25
 energy: 33.432757755437 xtb: 6.6.1 (8d0f1dd)
C            3.86805323759598        0.94731753282996        0.13292518684513
N            2.45827588702889        0.23706922932651        0.03428108793788
C            2.55793907015399       -1.13085390295582        0.02648694087699
N            1.35256165881294       -1.74952410448688       -0.00905373461228
C            0.36823681057232       -0.83471979903180       -0.01448267165609
C            0.92776822632760        0.46507902135573        0.00918634786512
C           -0.05201668126198        1.53688621942824       -0.02141565588517
O            0.10759325093360        2.75007599553753       -0.02222798977269
N           -1.47414485690124        1.06880568979849       -0.05916472862696
C           -2.60055613536042        2.01792457990335       -0.08902352516911
C           -1.94301812706127       -0.20046557281408       -0.06560905940412
O           -3.12341846229582       -0.49156767549734       -0.09242289486716
N           -0.96228155715717       -1.19094098831037       -0.03897080438854
C           -1.44319970832694       -2.56118732749477       -0.03231154926098
H            4.53967625519321        0.71088405406550        1.00144540066954
H            4.59944702940168        0.79320986042772       -0.70186423694258
H            3.55463414886269        1.97257768956056        0.17699290949907
H            3.49283093311507       -1.63404362494124       -0.00268372512432
H           -2.23831593303304        3.04232819761452       -0.10293897945678
H           -3.22903455432146        1.82676335490951       -0.96801997067186
H           -3.24851969966246        1.85787821886035        0.78091794388152
H           -1.14640098715616       -3.09094083804572        0.87464131455573
H           -1.12094385569376       -3.11151191742320       -0.91803924411769
H           -2.53591550978063       -2.49861139896232       -0.04953713090263
H            1.20296422795052       -2.74340389148243       -0.02207733512471
25
 energy: 31.854673090812 xtb: 6.6.1 (8d0f1dd)
C            3.86110827504730        0.93646806130603        0.13563839979754
N            2.45515297080659        0.24104019244330        0.02858270236244
C            2.55501592672386       -1.12741660040262        0.01880726329578
N            1.34864562245514       -1.74540946956513       -0.01352999909786
C            0.36873133174137       -0.82861640986644       -0.01588985998557
C            0.92355069618387        0.47277245022760        0.00740518176356
C           -0.05501102576680        1.54205349099522       -0.02070638380981
O            0.10882828508591        2.75522800972611       -0.01869579342322
N           -1.46994548074570        1.07669244037694       -0.06020566614257
C           -2.60161102376060        2.01717657346647       -0.09197910325726
C           -1.93831571711899       -0.19405970846064       -0.06490468265032
O           -3.11928051541366       -0.48703345815076       -0.09135040557809
N           -0.96225798250384       -1.18436983729987       -0.03724293560583
C           -1.43499513419511       -2.55576396463308       -0.02822049350321
H            4.52180349569116        0.68243349709289        1.00449572021108
H            4.58728722190017        0.77653506765494       -0.70075603699847
H            3.56753063073559        1.96733683401701        0.18769597011917
H            3.48955380569836       -1.63177572205300       -0.00930908256295
H           -2.25528704950899        3.04164105508048       -0.10778412875172
H           -3.22479957050364        1.81286772235478       -0.97044793079957
H           -3.24620625703297        1.84748636289435        0.77795662335523
H           -1.13198804900034       -3.08172564273491        0.87926390191217
H           -1.10813546635522       -3.10477287475258       -0.91348382977620
H           -2.52758832741140       -2.50031158176933       -0.04448215776940
H            1.20042800518411       -2.73944788577576       -0.02382337695765
25
 energy: 28.913747481561 xtb: 6.6.1 (8d0f1dd)
C            3.84123621769349        0.92651489339758        0.14008648239814
N            2.45125852683275        0.24470490694061        0.02061439722156
C            2.55421282713039       -1.12732183640889        0.00664014462970
N            1.34651623846515       -1.74361764587733       -0.02043411657139
C            0.37162721379704       -0.82493704016603       -0.01706394253337
C            0.92048849924711        0.47779198433634        0.00649055498485
C           -0.05688930441277        1.54502477031946       -0.01940820848240
O            0.11238547444651        2.75731808540648       -0.01353660486149
N           -1.46398659591833        1.08387841087292       -0.06204724312934
C           -2.59747511445199        2.01814681938279       -0.09699516093785
C           -1.93194909485911       -0.18871034220768       -0.06368034608811
O           -3.11323567463974       -0.48217771113508       -0.08992541691762
N           -0.96072155270396       -1.17862163134189       -0.03395935983758
C           -1.42550771309542       -2.55051878544523       -0.02196509012553
H            4.49298551353604        0.65063084271287        1.00688791642839
H            4.55986200792206        0.76858939058509       -0.70066195696190
H            3.57299446761324        1.96475758237497        0.20843767662972
H            3.48824320422012       -1.63206978064983       -0.01909537865888
H           -2.26499144810683        3.04427086038511       -0.11702711769583
H           -3.21647667232003        1.80202482322200       -0.97411102772525
H           -3.23908673446786        1.84323674191261        0.77294986938353
H           -1.11640314727648       -3.07181089422865        0.88628945589748
H           -1.09460406079168       -3.09825954906067       -0.90667958269729
H           -2.51801269520497       -2.50200914416632       -0.03705509908344
H            1.19974428528143       -2.73780714898928       -0.02771694911882
25
 energy: 27.314276999506 xtb: 6.6.1 (8d0f1dd)
C            3.82840123692726        0.92022983966156        0.14496134934958
N            2.45023401854359        0.24752851986346        0.01433179221551
C            2.55508435638894       -1.12810755270354       -0.00441295351031
N            1.34666105148188       -1.74239607207231       -0.02682421200961
C            0.37426538324480       -0.82273979574329       -0.01741143968146
C            0.92064797984847        0.48006168043221        0.00689000822500
C           -0.05802025292437        1.54660117205376       -0.01854495364965
O            0.11144283651402        2.75828733896907       -0.00982012122242
N           -1.46254901394784        1.08628053029186       -0.06432410833994
C           -2.59603830278110        2.01869370371101       -0.10246385853628
C           -1.92971652101357       -0.18751986476751       -0.06300340224534
O           -3.11080447317038       -0.48107832839896       -0.08919266598264
N           -0.95879532678479       -1.17567740178117       -0.03062842074567
C           -1.41987389246182       -2.54800256787472       -0.01584777407517
H            4.48013653076840        0.62430490357659        1.00624600335927
H            4.54123201537150        0.77312417878411       -0.70189787936754
H            3.57883499179975        1.96307147638399        0.23444738856736
H            3.48884638847127       -1.63269426346226       -0.02832657710848
H           -2.26711962139087        3.04630213281313       -0.12762572315480
H           -3.21482219834034        1.79734525501925       -0.97820054159805
H           -3.23650192854135        1.84647594146186        0.76843350822333
H           -1.10834749847893       -3.06606446260038        0.89326307947800
H           -1.08804558618562       -3.09599455725764       -0.89993636486880
H           -2.51244947165358       -2.50249007202083       -0.03022969634248
H            1.19951196625084       -2.73651313216725       -0.03284854083215
25
 energy: 25.654659665003 xtb: 6.6.1 (8d0f1dd)
C            3.81315231653275        0.91409084519631        0.15308491486378
N            2.44919562957874        0.25050713921537        0.00496794667887
C            2.55674162543611       -1.12888370500133       -0.02218328983526
N            1.34814039283898       -1.74122195415954       -0.03715330208790
C            0.37704546277237       -0.82092334251473       -0.01740120348171
C            0.92282430109070        0.48079740936963        0.00830424751721
C           -0.05835684862710        1.54804194528301       -0.01746972173324
O            0.10846036244672        2.75907626758428       -0.00506057065289
N           -1.46263689337683        1.08637533759119       -0.06825812210812
C           -2.59446430595863        2.01975556728742       -0.11165809173938
C           -1.92903769240978       -0.18845778246095       -0.06219667010165
O           -3.10951543380696       -0.48173145087170       -0.08837771221227
N           -0.95584354694696       -1.17368518908544       -0.02500501202466
C           -1.41414570732460       -2.54680449751851       -0.00579761112969
H            4.46842707592076        0.58772488554586        1.00273064149296
H            4.51912561821695        0.79202027924470       -0.70372961431286
H            3.58484132380612        1.95936927569688        0.28039897513740
H            3.49086248524515       -1.63234963630990       -0.04283302293059
H           -2.26173042627159        3.04771516677359       -0.14553255208139
H           -3.21551353348591        1.79491668535439       -0.98527000036233
H           -3.23455306123739        1.85798181794814        0.76158401724089
H           -1.10077409150035       -3.06076598804920        0.90467503210488
H           -1.08268543720229       -3.09637507739574       -0.88877787748863
H           -2.50685096285632       -2.50305187046364       -0.01925753019033
H            1.19950601505553       -2.73509352608811       -0.04274997441585
25
 energy: 24.406026724030 xtb: 6.6.1 (8d0f1dd)
C            3.80014690356819        0.90996933241206        0.16396210596293
N            2.44689576871005        0.25328402608698       -0.00739352464480
C            2.55781739834420       -1.12839067249119       -0.04627517633967
N            1.34961956226743       -1.74009333020922       -0.05086450380980
C            0.37831909492617       -0.81970924803911       -0.01730373499080
C            0.92587800235859        0.48013792173582        0.00999609260618
C           -0.05730168179482        1.54902697297710       -0.01658416731059
O            0.10498814872184        2.75969380342751       -0.00030752604475
N           -1.46401576105013        1.08403493046342       -0.07336320277577
C           -2.59273812215713        2.02124100283887       -0.12380522510242
C           -1.93008060124183       -0.19095819453535       -0.06114359037338
O           -3.10982035994052       -0.48405384108809       -0.08732264551022
N           -0.95312298838701       -1.17328122372057       -0.01742454543380
C           -1.40957491265703       -2.54753651234811        0.00762603897129
H            4.46058157322313        0.54474083080530        0.99632102087470
H            4.50002091690615        0.82534137422436       -0.70402669715539
H            3.58902392068466        1.95278040660893        0.34277459976111
H            3.49311591102949       -1.62976633018622       -0.06111076677674
H           -2.24918467939303        3.04788122865670       -0.16894973976645
H           -3.21798827286828        1.79384238297965       -0.99468642852421
H           -3.23331008892617        1.87573397250077        0.75270727761173
H           -1.09428194969209       -3.05695552325232        0.91972244151549
H           -1.07929641789997       -3.09999746404572       -0.87379107719135
H           -2.50238639856700       -2.50435217845334       -0.00455475355796
H            1.19890970177121       -2.73358506517626       -0.05716837584809
25