      -----------------------------------------------------------      
     |                   =====================                   |     
     |                           x T B                           |     
     |                   =====================                   |     
     |                         S. Grimme                         |     
     |          Mulliken Center for Theoretical Chemistry        |     
     |                    University of Bonn                     |     
      -----------------------------------------------------------      

   * xtb version 6.6.1 (8d0f1dd) compiled by 'conda@1efc2f54142f' on 2023-08-01

   xtb is free software: you can redistribute it and/or modify it under
   the terms of the GNU Lesser General Public License as published by
   the Free Software Foundation, either version 3 of the License, or
   (at your option) any later version.
   
   xtb is distributed in the hope that it will be useful,
   but WITHOUT ANY WARRANTY; without even the implied warranty of
   MERCHANTABILITY or FITNESS FOR A PARTICULAR PURPOSE.  See the
   GNU Lesser General Public License for more details.
   
   Cite this work as:
   * C. Bannwarth, E. Caldeweyher, S. Ehlert, A. Hansen, P. Pracht,
     J. Seibert, S. Spicher, S. Grimme, WIREs Comput. Mol. Sci., 2020, 11,
     e01493. DOI: 10.1002/wcms.1493
   
   for GFN2-xTB:
   * C. Bannwarth, S. Ehlert and S. Grimme., J. Chem. Theory Comput., 2019,
     15, 1652-1671. DOI: 10.1021/acs.jctc.8b01176
   for GFN1-xTB:
   * S. Grimme, C. Bannwarth, P. Shushkov, J. Chem. Theory Comput., 2017,
     13, 1989-2009. DOI: 10.1021/acs.jctc.7b00118
   for GFN0-xTB:
   * P. Pracht, E. Caldeweyher, S. Ehlert, S. Grimme, ChemRxiv, 2019, preprint.
     DOI: 10.26434/chemrxiv.8326202.v1
   for GFN-FF:
   * S. Spicher and S. Grimme, Angew. Chem. Int. Ed., 2020, 59, 15665-15673.
     DOI: 10.1002/anie.202004239
   
   for ALPB and GBSA implicit solvation:
   * S. Ehlert, M. Stahn, S. Spicher, S. Grimme, J. Chem. Theory Comput.,
     2021, 17, 4250-4261. DOI: 10.1021/acs.jctc.1c00471
   
   for DFT-D4:
   * E. Caldeweyher, C. Bannwarth and S. Grimme, J. Chem. Phys., 2017,
     147, 034112. DOI: 10.1063/1.4993215
   * E. Caldeweyher, S. Ehlert, A. Hansen, H. Neugebauer, S. Spicher,
     C. Bannwarth and S. Grimme, J. Chem. Phys., 2019, 150, 154122.
     DOI: 10.1063/1.5090222
   * E. Caldeweyher, J.-M. Mewes, S. Ehlert and S. Grimme, Phys. Chem. Chem. Phys.
     2020, 22, 8499-8512. DOI: 10.1039/D0CP00502A
   
   for sTDA-xTB:
   * S. Grimme and C. Bannwarth, J. Chem. Phys., 2016, 145, 054103.
     DOI: 10.1063/1.4959605
   
   in the mass-spec context:
   * V. Asgeirsson, C. Bauer and S. Grimme, Chem. Sci., 2017, 8, 4879.
     DOI: 10.1039/c7sc00601b
   * J. Koopman and S. Grimme, ACS Omega 2019, 4, 12, 15120-15133.
     DOI: 10.1021/acsomega.9b02011
   
   for metadynamics refer to:
   * S. Grimme, J. Chem. Theory Comput., 2019, 155, 2847-2862
     DOI: 10.1021/acs.jctc.9b00143
   
   for SPH calculations refer to:
   * S. Spicher and S. Grimme, J. Chem. Theory Comput., 2021, 17, 1701-1714
     DOI: 10.1021/acs.jctc.0c01306
   
   with help from (in alphabetical order)
   P. Atkinson, C. Bannwarth, F. Bohle, G. Brandenburg, E. Caldeweyher
   M. Checinski, S. Dohm, S. Ehlert, S. Ehrlich, I. Gerasimov, C. Hölzer
   A. Katbashev, J. Koopman, C. Lavigne, S. Lehtola, F. März, M. Müller,
   F. Musil, H. Neugebauer, J. Pisarek, C. Plett, P. Pracht, F. Pultar,
   J. Seibert, P. Shushkov, S. Spicher, M. Stahn, M. Steiner, T. Strunk,
   J. Stückrath, T. Rose, and J. Unsleber
   
 * started run on 2024/06/05 at 20:00:11.722     

           -------------------------------------------------
          |                Calculation Setup                |
           -------------------------------------------------

          program call               : xtb xtbopt.xyz --opt crude --input .xc2 --gfn2
          hostname                   : n-62-11-66
          coordinate file            : xtbopt.xyz
          omp threads                :                     1

   ID    Z sym.   atoms
    1    6 C      1, 3, 5-7, 10, 11, 14
    2    7 N      2, 4, 9, 13
    3    8 O      8, 12
    4    1 H      15-25

molecular fragmentation (1/2 indicates fragments):
1111111122222211112222221
# atoms in fragment 1/2:    13    12
 fragment masses (1/2) :      109.11       86.09
CMA distance (Bohr)    :   9.184
constraining FC (au)   :  0.0500
########################################################################
[WARNING] Please study the warnings concerning your input carefully
-1- readin_getIntValue: could not parse ''
########################################################################

           -------------------------------------------------
          |                 G F N 2 - x T B                 |
           -------------------------------------------------

        Reference                      10.1021/acs.jctc.8b01176
      * Hamiltonian:
        H0-scaling (s, p, d)           1.850000    2.230000    2.230000
        zeta-weighting                 0.500000
      * Dispersion:
        s8                             2.700000
        a1                             0.520000
        a2                             5.000000
        s9                             5.000000
      * Repulsion:
        kExp                           1.500000    1.000000
        rExp                           1.000000
      * Coulomb:
        alpha                          2.000000
        third order                    shell-resolved
        anisotropic                    true
        a3                             3.000000
        a5                             4.000000
        cn-shift                       1.200000
        cn-exp                         4.000000
        max-rad                        5.000000

q/qsh data taken from xtbrestart
CAMM data taken from xtbrestart

          ...................................................
          :                      SETUP                      :
          :.................................................:
          :  # basis functions                  67          :
          :  # atomic orbitals                  67          :
          :  # shells                           39          :
          :  # electrons                        74          :
          :  max. iterations                   250          :
          :  Hamiltonian                  GFN2-xTB          :
          :  restarted?                       true          :
          :  GBSA solvation                  false          :
          :  PC potential                    false          :
          :  electronic temp.         5000.0000000     K    :
          :  accuracy                    1.0000000          :
          :  -> integral cutoff          0.2500000E+02      :
          :  -> integral neglect         0.1000000E-07      :
          :  -> SCF convergence          0.1000000E-05 Eh   :
          :  -> wf. convergence          0.1000000E-03 e    :
          :  Broyden damping             0.4000000          :
          ...................................................

 iter      E             dE          RMSdq      gap      omega  full diag
   1    -42.6813702 -0.426814E+02  0.344E-05    1.02       0.0  T
   2    -42.6813702  0.703935E-10  0.524E-05    1.02     382.0  T
   3    -42.6813702 -0.103931E-09  0.105E-05    1.02    1912.6  T

   *** convergence criteria satisfied after 3 iterations ***

         #    Occupation            Energy/Eh            Energy/eV
      -------------------------------------------------------------
         1        2.0000           -0.8578468             -23.3432
       ...           ...                  ...                  ...
        31        1.9993           -0.6037707             -16.4294
        32        1.9991           -0.6007579             -16.3475
        33        1.9717           -0.5457755             -14.8513
        34        1.9526           -0.5374535             -14.6249
        35        1.9101           -0.5269617             -14.3394
        36        1.8557           -0.5190207             -14.1233
        37        1.6561           -0.5034611             -13.6999 (HOMO)
        38        0.6227           -0.4660070             -12.6807 (LUMO)
        39        0.0308           -0.4127311             -11.2310
        40        0.0019           -0.3683261             -10.0227
        41        0.0012           -0.3616987              -9.8423
        42        0.0001           -0.3162068              -8.6044
       ...           ...                  ...                  ...
        67                          1.2283927              33.4263
      -------------------------------------------------------------
                  HL-Gap            0.0374541 Eh            1.0192 eV
             Fermi-level           -0.4785747 Eh          -13.0227 eV

 SCC (total)                   0 d,  0 h,  0 min,  0.021 sec
 SCC setup                      ...        0 min,  0.000 sec (  1.412%)
 Dispersion                     ...        0 min,  0.000 sec (  1.548%)
 classical contributions        ...        0 min,  0.000 sec (  0.454%)
 integral evaluation            ...        0 min,  0.005 sec ( 23.405%)
 iterations                     ...        0 min,  0.005 sec ( 24.419%)
 molecular gradient             ...        0 min,  0.010 sec ( 48.044%)
 printout                       ...        0 min,  0.000 sec (  0.679%)

         :::::::::::::::::::::::::::::::::::::::::::::::::::::
         ::                     SUMMARY                     ::
         :::::::::::::::::::::::::::::::::::::::::::::::::::::
         :: total energy             -41.989260952796 Eh    ::
         :: gradient norm              0.003311932839 Eh/a0 ::
         :: HOMO-LUMO gap              1.019178461424 eV    ::
         ::.................................................::
         :: SCC energy               -42.681370236114 Eh    ::
         :: -> isotropic ES            0.109245610450 Eh    ::
         :: -> anisotropic ES         -0.014033176126 Eh    ::
         :: -> anisotropic XC          0.042964806626 Eh    ::
         :: -> dispersion             -0.015538126754 Eh    ::
         :: repulsion energy           0.692062959115 Eh    ::
         :: add. restraining           0.000000000000 Eh    ::
         :: total charge               1.000000000329 e     ::
         :::::::::::::::::::::::::::::::::::::::::::::::::::::

      ----------------------------------------------------------- 
     |                   =====================                   |
     |                        A N C O P T                        |
     |                   =====================                   |
     |               Approximate Normal Coordinate               |
     |                Rational Function Optimizer                |
      ----------------------------------------------------------- 

          ...................................................
          :                      SETUP                      :
          :.................................................:
          :   optimization level             crude          :
          :   max. optcycles                   200          :
          :   ANC micro-cycles                  20          :
          :   degrees of freedom                69          :
          :.................................................:
          :   RF solver                   davidson          :
          :   write xtbopt.log                true          :
          :   linear?                        false          :
          :   energy convergence         0.5000000E-03 Eh   :
          :   grad. convergence          0.1000000E-01 Eh/α :
          :   maxmium RF displ.          1.0000000          :
          :   Hlow (freq-cutoff)         0.1000000E-01      :
          :   Hmax (freq-cutoff)         5.0000000          :
          :   S6 in model hess.         20.0000000          :
          ...................................................

generating ANC from model Hessian ...
Using Lindh-Hessian (1995)
 Shifting diagonal of input Hessian by    1.0138670004205388E-002
 Lowest  eigenvalues of input Hessian
    0.010000    0.000000    0.000000    0.000000    0.000000    0.000000
    0.000000    0.010197    0.010254    0.010338    0.010475    0.010648
    0.010678    0.010813    0.011053    0.011130    0.011450    0.011589
 Highest eigenvalues
    1.926867    2.046451    2.175624    2.837194    2.972274    3.125167


........................................................................
.............................. CYCLE    1 ..............................
........................................................................

 iter      E             dE          RMSdq      gap      omega  full diag
   1    -42.6813702 -0.426814E+02  0.733E-06    1.02       0.0  T
   2    -42.6813702  0.333955E-12  0.686E-06    1.02    2915.4  T
   3    -42.6813702 -0.966338E-12  0.351E-06    1.02    5700.5  T
     SCC iter.                  ...        0 min,  0.004 sec
     gradient                   ...        0 min,  0.010 sec
 * total energy  :   -41.9892610 Eh     change       -0.1364242E-11 Eh
   gradient norm :     0.0033121 Eh/α   predicted     0.0000000E+00 (-100.00%)
   displ. norm   :     0.0442793 α      lambda       -0.3466597E-04
   maximum displ.:     0.0174052 α      in ANC's #5, #1, #14, ...

   *** GEOMETRY OPTIMIZATION CONVERGED AFTER 1 ITERATIONS ***

------------------------------------------------------------------------
 total energy gain   :        -0.0000000 Eh       -0.0000 kcal/mol
 total RMSD          :         0.0000000 a0        0.0000 Å
 total power (kW/mol):        -0.0000000 (step)   -0.0000 (real)
------------------------------------------------------------------------

 ANCopt (total)                0 d,  0 h,  0 min,  0.023 sec
 optimizer setup                ...        0 min,  0.000 sec (  1.722%)
 model hessian                  ...        0 min,  0.002 sec (  9.044%)
 ANC generation                 ...        0 min,  0.001 sec (  3.070%)
 coordinate transformation      ...        0 min,  0.000 sec (  0.036%)
 single point calculation       ...        0 min,  0.018 sec ( 78.643%)
 optimization log               ...        0 min,  0.001 sec (  6.209%)
 hessian update                 ...        0 min,  0.000 sec (  0.003%)
 rational function              ...        0 min,  0.000 sec (  0.411%)

================
 final structure:
================
25
 xtb: 6.6.1 (8d0f1dd)
C            4.42612249974062        1.34192464042654        0.07982739544055
N            3.16211261875868        0.63111129051502        0.08510937983064
C            3.18687686691502       -0.71774085692958       -0.08754846372278
N            2.09931125886227       -1.41204115976912       -0.12755926869812
C            1.11106684644167       -2.01549586586133        0.12459247346262
C            2.02718566602219        1.26422368211209        0.27172337789320
C            1.19050789449314        2.18096074260497        0.44707472723120
O            0.26720512979192        2.89476648738152        0.60234947753155
N           -2.27381020671319        2.73886999041210       -0.86882093818956
C           -3.40007597099756        2.63036554196329       -0.36871060274966
C           -2.38573341940885       -1.39149262221013        0.18884622304229
O           -2.37104514714672       -0.23450993874801        0.27507528592942
N           -2.15961862738847       -2.54981727967383        0.04335290597834
C           -2.66811540969845       -3.87095003148671        0.07875486485667
H            5.01094166855995        1.08089364679239        0.96497312855727
H            5.00181842073717        1.08119738725661       -0.80934640769553
H            4.24062944646619        2.41386391331739        0.08532736072688
H            4.13325651452312       -1.20693357921514       -0.25190762483535
H           -1.44290878267767        2.90209714612389       -0.30330523081235
H           -4.24873775056586        2.45800057459271       -1.02297518297766
H           -3.63148920432454        2.69590372081207        0.70004440881015
H           -2.13753221524749       -4.43179168355160        0.85079922655554
H           -2.48552981354820       -4.34137162024713       -0.88986768787918
H           -3.73846773222765       -3.88871726671690        0.29225316155678
H            0.24646096277691       -2.43507831829804       -0.32889037196625

 Bond Distances (Angstroems)
 ---------------------------
C1-N2=1.4502         C1-H15=1.0925        C1-H16=1.0909        C1-H17=1.0879        N2-C1=1.4502         N2-C3=1.3601         
N2-C6=1.3129         C3-N2=1.3601         C3-N4=1.2909         C3-H18=1.0779        N4-C3=1.2909         N4-C5=1.1851         
C5-N4=1.1851         C5-H25=1.0627        C6-N2=1.3129         C6-C7=1.2535         C7-C6=1.2535         C7-O8=1.1773         
O8-C7=1.1773         N9-C10=1.2371        N9-H19=1.0183        C10-N9=1.2371        C10-H20=1.0854       C10-H21=1.0955       
C11-O12=1.1603       C11-N13=1.1891       O12-C11=1.1603       N13-C11=1.1891       N13-C14=1.4161       C14-N13=1.4161       
C14-H22=1.0918       C14-H23=1.0922       C14-H24=1.0916       H15-C1=1.0925        H16-C1=1.0909        H17-C1=1.0879        
H18-C3=1.0779        H19-N9=1.0183        H20-C10=1.0854       H21-C10=1.0955       H22-C14=1.0918       H23-C14=1.0922       
H24-C14=1.0916       H25-C5=1.0627        
 C  H  Rav=1.0868 sigma=0.0093  Rmin=1.0627  Rmax=1.0955    10
 C  C  Rav=1.2535 sigma=0.0000  Rmin=1.2535  Rmax=1.2535     1
 N  H  Rav=1.0183 sigma=0.0000  Rmin=1.0183  Rmax=1.0183     1
 N  C  Rav=1.3052 sigma=0.0930  Rmin=1.1851  Rmax=1.4502     8
 O  C  Rav=1.1688 sigma=0.0085  Rmin=1.1603  Rmax=1.1773     2

 selected bond angles (degree)
 --------------------
H15-C1-N2=110.27               H16-C1-N2=110.23               H16-C1-H15=108.71              H17-C1-N2=109.53               
H17-C1-H15=108.82              H17-C1-H16=109.24              C3-N2-C1=118.02                C6-N2-C1=121.17                
C6-N2-C3=120.80                N4-C3-N2=121.47                H18-C3-N2=119.04               H18-C3-N4=119.40               
C5-N4-C3=165.89                H25-C5-N4=142.07               C7-C6-N2=161.73                O8-C7-C6=170.17                
H19-N9-C10=122.17              H20-C10-N9=118.82              H21-C10-N9=125.55              H21-C10-H20=115.62             

 selected dihedral angles (degree)
 ---------------------------------
C3-N2-C1-H15=291.73           C3-N2-C1-H16= 51.77           C3-N2-C1-H17=172.00           C6-N2-C1-H15=110.68           
C6-N2-C1-H16=230.72           C6-N2-C1-H17=350.95           N4-C3-N2-C1=181.75            N4-C3-N2-C6=  2.81            
H18-C3-N2-C1=358.13           H18-C3-N2-C6=179.18           C5-N4-C3-N2=282.06            C5-N4-C3-H18=105.70           
H25-C5-N4-C3=167.16           C7-C6-N2-C1=  3.83            C7-C6-N2-C3=182.74            O8-C7-C6-N2=176.26            
H20-C10-N9-H19=179.93         H21-C10-N9-H19=  0.12         

 CMA Distance (Angstroems)
 ---------------------------
R(CMA):  4.8601
           -------------------------------------------------
          |                Final Singlepoint                |
           -------------------------------------------------

          ...................................................
          :                      SETUP                      :
          :.................................................:
          :  # basis functions                  67          :
          :  # atomic orbitals                  67          :
          :  # shells                           39          :
          :  # electrons                        74          :
          :  max. iterations                   250          :
          :  Hamiltonian                  GFN2-xTB          :
          :  restarted?                      false          :
          :  GBSA solvation                  false          :
          :  PC potential                    false          :
          :  electronic temp.         5000.0000000     K    :
          :  accuracy                    1.0000000          :
          :  -> integral cutoff          0.2500000E+02      :
          :  -> integral neglect         0.1000000E-07      :
          :  -> SCF convergence          0.1000000E-05 Eh   :
          :  -> wf. convergence          0.1000000E-03 e    :
          :  Broyden damping             0.4000000          :
          ...................................................

 iter      E             dE          RMSdq      gap      omega  full diag
   1    -42.6813702 -0.426814E+02  0.327E-06    1.02       0.0  T
   2    -42.6813702  0.909495E-12  0.537E-06    1.02    3727.8  T
   3    -42.6813702 -0.114397E-11  0.940E-07    1.02   21273.5  T

   *** convergence criteria satisfied after 3 iterations ***

         #    Occupation            Energy/Eh            Energy/eV
      -------------------------------------------------------------
         1        2.0000           -0.8578467             -23.3432
       ...           ...                  ...                  ...
        31        1.9993           -0.6037707             -16.4294
        32        1.9991           -0.6007579             -16.3475
        33        1.9717           -0.5457755             -14.8513
        34        1.9526           -0.5374535             -14.6249
        35        1.9101           -0.5269617             -14.3394
        36        1.8557           -0.5190207             -14.1233
        37        1.6561           -0.5034611             -13.6999 (HOMO)
        38        0.6227           -0.4660070             -12.6807 (LUMO)
        39        0.0308           -0.4127310             -11.2310
        40        0.0019           -0.3683261             -10.0227
        41        0.0012           -0.3616987              -9.8423
        42        0.0001           -0.3162068              -8.6044
       ...           ...                  ...                  ...
        67                          1.2283927              33.4263
      -------------------------------------------------------------
                  HL-Gap            0.0374541 Eh            1.0192 eV
             Fermi-level           -0.4785747 Eh          -13.0227 eV

 SCC (total)                   0 d,  0 h,  0 min,  0.018 sec
 SCC setup                      ...        0 min,  0.000 sec (  0.985%)
 Dispersion                     ...        0 min,  0.000 sec (  0.916%)
 classical contributions        ...        0 min,  0.000 sec (  0.352%)
 integral evaluation            ...        0 min,  0.003 sec ( 18.849%)
 iterations                     ...        0 min,  0.004 sec ( 24.075%)
 molecular gradient             ...        0 min,  0.010 sec ( 54.174%)
 printout                       ...        0 min,  0.000 sec (  0.611%)

         :::::::::::::::::::::::::::::::::::::::::::::::::::::
         ::                     SUMMARY                     ::
         :::::::::::::::::::::::::::::::::::::::::::::::::::::
         :: total energy             -41.989260952797 Eh    ::
         :: gradient norm              0.003312031459 Eh/a0 ::
         :: HOMO-LUMO gap              1.019178631302 eV    ::
         ::.................................................::
         :: SCC energy               -42.681370236116 Eh    ::
         :: -> isotropic ES            0.109245629907 Eh    ::
         :: -> anisotropic ES         -0.014033162856 Eh    ::
         :: -> anisotropic XC          0.042964804491 Eh    ::
         :: -> dispersion             -0.015538126714 Eh    ::
         :: repulsion energy           0.692062959115 Eh    ::
         :: add. restraining           0.000000000000 Eh    ::
         :: total charge               1.000000000329 e     ::
         :::::::::::::::::::::::::::::::::::::::::::::::::::::

           -------------------------------------------------
          |                Property Printout                |
           -------------------------------------------------

    * Orbital Energies and Occupations

         #    Occupation            Energy/Eh            Energy/eV
      -------------------------------------------------------------
         1        2.0000           -0.8578467             -23.3432
       ...           ...                  ...                  ...
        25        2.0000           -0.6485041             -17.6467
        26        1.9999           -0.6409628             -17.4415
        27        1.9998           -0.6269672             -17.0606
        28        1.9998           -0.6251573             -17.0114
        29        1.9998           -0.6233303             -16.9617
        30        1.9995           -0.6088278             -16.5670
        31        1.9993           -0.6037707             -16.4294
        32        1.9991           -0.6007579             -16.3475
        33        1.9717           -0.5457755             -14.8513
        34        1.9526           -0.5374535             -14.6249
        35        1.9101           -0.5269617             -14.3394
        36        1.8557           -0.5190207             -14.1233
        37        1.6561           -0.5034611             -13.6999 (HOMO)
        38        0.6227           -0.4660070             -12.6807 (LUMO)
        39        0.0308           -0.4127310             -11.2310
        40        0.0019           -0.3683261             -10.0227
        41        0.0012           -0.3616987              -9.8423
        42        0.0001           -0.3162068              -8.6044
        43        0.0000           -0.2929139              -7.9706
        44        0.0000           -0.2885175              -7.8510
        45        0.0000           -0.2478981              -6.7457
        46                         -0.1482976              -4.0354
        47                         -0.0800022              -2.1770
        48                         -0.0686343              -1.8676
       ...                                ...                  ...
        67                          1.2283927              33.4263
      -------------------------------------------------------------
                  HL-Gap            0.0374541 Eh            1.0192 eV
             Fermi-level           -0.4785747 Eh          -13.0227 eV

     #   Z          covCN         q      C6AA      α(0)
     1   6 C        3.710    -0.086    22.293     6.747
     2   7 N        2.737     0.118    19.225     6.512
     3   6 C        2.810     0.031    27.300     8.560
     4   7 N        1.830     0.087    20.381     6.690
     5   6 C        1.845    -0.004    31.260     9.032
     6   6 C        1.948    -0.088    33.489     9.345
     7   6 C        1.837     0.223    25.922     8.225
     8   8 O        0.856    -0.251    18.928     5.833
     9   7 N        1.770    -0.172    25.484     7.475
    10   6 C        2.759     0.058    26.670     8.457
    11   6 C        1.770     0.311    24.234     7.959
    12   8 O        0.856    -0.280    19.425     5.909
    13   7 N        1.820    -0.172    25.519     7.485
    14   6 C        3.686    -0.030    21.318     6.610
    15   1 H        0.924     0.099     1.790     2.092
    16   1 H        0.924     0.097     1.814     2.106
    17   1 H        0.925     0.101     1.773     2.082
    18   1 H        0.926     0.111     1.687     2.031
    19   1 H        0.860     0.225     0.987     1.556
    20   1 H        0.925     0.111     1.688     2.032
    21   1 H        0.924     0.095     1.836     2.119
    22   1 H        0.924     0.087     1.908     2.160
    23   1 H        0.924     0.087     1.905     2.158
    24   1 H        0.924     0.079     1.985     2.204
    25   1 H        0.927     0.162     1.314     1.793

 Mol. C6AA /au·bohr⁶  :       6884.600294
 Mol. C8AA /au·bohr⁸  :     158820.786785
 Mol. α(0) /au        :        127.172125


Wiberg/Mayer (AO) data.
largest (>0.10) Wiberg bond orders for each atom

 ---------------------------------------------------------------------------
     #   Z sym  total        # sym  WBO       # sym  WBO       # sym  WBO
 ---------------------------------------------------------------------------
     1   6 C    3.929 --    17 H    0.976     2 N    0.971    16 H    0.964
                            15 H    0.958
     2   7 N    3.562 --     6 C    1.301     3 C    1.197     1 C    0.971
     3   6 C    3.827 --     4 N    1.355     2 N    1.197    18 H    0.929
                             5 C    0.167
     4   7 N    3.652 --     5 C    2.244     3 C    1.355
     5   6 C    3.481 --     4 N    2.244    25 H    0.919     3 C    0.167
     6   6 C    3.559 --     7 C    1.907     2 N    1.301     8 O    0.196
     7   6 C    3.806 --     6 C    1.907     8 O    1.813
     8   8 O    2.135 --     7 C    1.813     6 C    0.196
     9   7 N    2.968 --    10 C    2.062    19 H    0.878
    10   6 C    3.898 --     9 N    2.062    20 H    0.930    21 H    0.903
    11   6 C    3.938 --    13 N    1.988    12 O    1.879
    12   8 O    2.289 --    11 C    1.879    13 N    0.365
    13   7 N    3.373 --    11 C    1.988    14 C    1.009    12 O    0.365
    14   6 C    3.933 --    13 N    1.009    24 H    0.961    23 H    0.961
                            22 H    0.960
    15   1 H    0.978 --     1 C    0.958
    16   1 H    0.982 --     1 C    0.964
    17   1 H    0.988 --     1 C    0.976
    18   1 H    0.985 --     3 C    0.929
    19   1 H    0.927 --     9 N    0.878
    20   1 H    0.951 --    10 C    0.930
    21   1 H    0.915 --    10 C    0.903
    22   1 H    0.983 --    14 C    0.960
    23   1 H    0.984 --    14 C    0.961
    24   1 H    0.986 --    14 C    0.961
    25   1 H    0.960 --     5 C    0.919
 ---------------------------------------------------------------------------

Topologies differ in total number of bonds
Writing topology from bond orders to xtbtopo.mol

molecular dipole:
                 x           y           z       tot (Debye)
 q only:        1.747      -1.175      -0.261
   full:        1.614      -1.295      -0.056       5.260
molecular quadrupole (traceless):
                xx          xy          yy          xz          yz          zz
 q only:       35.556       5.737      -0.520       0.445      -0.511     -35.036
  q+dip:       41.098       6.481      -3.557      -1.576       2.537     -37.540
   full:       39.592       7.118      -3.579      -1.219       1.948     -36.013

           -------------------------------------------------
          |                Geometry Summary                 |
           -------------------------------------------------

      molecular mass/u    :      195.1988581
   center of mass at/Å    :        0.1064798       0.1210382       0.0511563
  moments of inertia/u·Å² :        0.8670554E+03   0.1384430E+04   0.2198304E+04
rotational constants/cm⁻¹ :        0.1944239E-01   0.1217659E-01   0.7668472E-02

 * 20 selected distances

     #   Z          #   Z                                           value/Å
     1   6 C        2   7 N                                       1.4501741 (max)
     2   7 N        3   6 C                                       1.3600833
     3   6 C        4   7 N                                       1.2909117
     4   7 N        5   6 C                                       1.1850592
     2   7 N        6   6 C                                       1.3129035
     6   6 C        7   6 C                                       1.2534692
     7   6 C        8   8 O                                       1.1773348
     9   7 N       10   6 C                                       1.2370766
    11   6 C       12   8 O                                       1.1602846
    11   6 C       13   7 N                                       1.1891226
    13   7 N       14   6 C                                       1.4160559
     1   6 C       15   1 H                                       1.0925355
     1   6 C       16   1 H                                       1.0908871
     1   6 C       17   1 H                                       1.0878842
     3   6 C       18   1 H                                       1.0779416 (min)
    10   6 C       20   1 H                                       1.0853566
    10   6 C       21   1 H                                       1.0954838
    14   6 C       22   1 H                                       1.0918400
    14   6 C       23   1 H                                       1.0921831
    14   6 C       24   1 H                                       1.0915821

 * 4 distinct bonds (by element types)

   Z      Z             #   av. dist./Å        max./Å        min./Å
   1 H    6 C           9     1.0895216     1.0954838     1.0779416
   6 C    6 C           1     1.2534692     1.2534692     1.2534692
   6 C    7 N           8     1.3051734     1.4501741     1.1850592
   6 C    8 O           2     1.1688097     1.1773348     1.1602846


optimized geometry written to: xtbopt.xyz


           -------------------------------------------------
          | TOTAL ENERGY              -41.989260952797 Eh   |
          | GRADIENT NORM               0.003312031459 Eh/α |
          | HOMO-LUMO GAP               1.019178631302 eV   |
           -------------------------------------------------

------------------------------------------------------------------------
 * finished run on 2024/06/05 at 20:00:11.823     
------------------------------------------------------------------------
 total:
 * wall-time:     0 d,  0 h,  0 min,  0.101 sec
 *  cpu-time:     0 d,  0 h,  0 min,  0.075 sec
 * ratio c/w:     0.745 speedup
 SCF:
 * wall-time:     0 d,  0 h,  0 min,  0.021 sec
 *  cpu-time:     0 d,  0 h,  0 min,  0.021 sec
 * ratio c/w:     1.000 speedup
 ANC optimizer:
 * wall-time:     0 d,  0 h,  0 min,  0.047 sec
 *  cpu-time:     0 d,  0 h,  0 min,  0.041 sec
 * ratio c/w:     0.872 speedup

