25
 energy: -41.989260952797 gnorm: 0.003312078443 xtb: 6.6.1 (8d0f1dd)
C            4.42612249974062        1.34192464042654        0.07982739544055
N            3.16211261875868        0.63111129051502        0.08510937983064
C            3.18687686691502       -0.71774085692958       -0.08754846372278
N            2.09931125886227       -1.41204115976912       -0.12755926869812
C            1.11106684644167       -2.01549586586133        0.12459247346262
C            2.02718566602219        1.26422368211209        0.27172337789320
C            1.19050789449314        2.18096074260497        0.44707472723120
O            0.26720512979192        2.89476648738152        0.60234947753155
N           -2.27381020671319        2.73886999041210       -0.86882093818956
C           -3.40007597099756        2.63036554196329       -0.36871060274966
C           -2.38573341940885       -1.39149262221013        0.18884622304229
O           -2.37104514714672       -0.23450993874801        0.27507528592942
N           -2.15961862738847       -2.54981727967383        0.04335290597834
C           -2.66811540969845       -3.87095003148671        0.07875486485667
H            5.01094166855995        1.08089364679239        0.96497312855727
H            5.00181842073717        1.08119738725661       -0.80934640769553
H            4.24062944646619        2.41386391331739        0.08532736072688
H            4.13325651452312       -1.20693357921514       -0.25190762483535
H           -1.44290878267767        2.90209714612389       -0.30330523081235
H           -4.24873775056586        2.45800057459271       -1.02297518297766
H           -3.63148920432454        2.69590372081207        0.70004440881015
H           -2.13753221524749       -4.43179168355160        0.85079922655554
H           -2.48552981354820       -4.34137162024713       -0.88986768787918
H           -3.73846773222765       -3.88871726671690        0.29225316155678
H            0.24646096277691       -2.43507831829804       -0.32889037196625
