72
 energy: 0.000000000000 xtb: 6.6.1 (8d0f1dd)
N           -1.47310921155849        2.74401293103706        2.22063921685122
C           -1.55658879776851        2.16490285539332        1.13274273951491
C           -2.74549199786261        2.05621232186130        0.23826248438941
C           -3.31377553111525        0.64333411542669        0.32332512650568
C           -4.30230156009016        0.24487110156316       -0.58026161703006
C           -4.85238763031941       -1.02286490450319       -0.53363588718165
O           -5.81419972815119       -1.48606034185536       -1.36157882725342
C           -6.39655633239252       -0.60827000183299       -2.29568474302620
C           -4.39972501531283       -1.94646102182611        0.44396929121966
O           -4.98748311285188       -3.16145997157803        0.41085992006324
C           -4.66362127904578       -4.10093827755394        1.40909127743729
C           -3.42072513477031       -1.54561384810496        1.33436546260297
C           -2.88302799614223       -0.26315800396994        1.27400150770375
C           -2.19303798107274        2.30467000305896       -1.18742977106749
C           -1.26651538239283        1.17243369445008       -1.65249429687285
C            0.01082524939134        1.09745454476277       -0.89354803499847
N            0.61779393476578       -0.02034948052406       -0.57705522512502
C            2.00145210352228       -0.02376006389122       -0.15611399603240
C            2.92554934655222       -0.53865282675074       -1.27700088804721
C            4.35756843073516       -0.43050757231754       -0.83075544324989
C            5.07346135469827        0.73206409086248       -1.03980965825901
C            6.38627986649936        0.84224441421807       -0.60344822702769
C            7.00047264773336       -0.20824756335880        0.05722314418200
O            8.26703657141718       -0.21011313101264        0.52410943644933
C            9.06912227848686        0.92943601033931        0.31863058007678
C            6.27039964270142       -1.40439753960823        0.28033466008274
O            6.94829939911432       -2.38012925705718        0.92751999079483
C            6.31537317745639       -3.61583200086742        1.15217711710877
C            4.96302794628964       -1.49347471867959       -0.16064430359178
C           -0.05511211367372       -1.29906247805359       -0.62085686319744
C           -3.86758037025447        3.07992600430699        0.58498060215443
C           -4.49286159663096        2.77383493050346        1.94313289484366
C           -3.39165179876499        4.52917666589254        0.54797523472093
H           -4.66030026466202        0.94509067363451       -1.31640568823548
H           -6.85037928558380        0.25803162192116       -1.80468845313260
H           -7.17287442604349       -1.18600110843259       -2.79318157561361
H           -5.66836817451085       -0.26952966318766       -3.04040255244073
H           -4.88416720672258       -3.71589460520039        2.40913542187496
H           -5.29223570620378       -4.96637458756866        1.20969236903657
H           -3.61139813139015       -4.39919835331056        1.35529357841967
H           -3.07077796610445       -2.21868765711333        2.10002662693138
H           -2.14562754426994        0.02067850696302        2.01001344383370
H           -3.02188875377605        2.38238012313952       -1.88813545054866
H           -1.65198530896729        3.25146700677685       -1.20556284570283
H           -1.81103374245520        0.23006524641044       -1.62116301628650
H           -0.99335688527853        1.37490212198123       -2.69443256973690
H           -0.67628064361333        1.65183887049447        0.61785727145403
H            0.63525841192517        1.98466369793744       -0.92314021190751
H            2.11132552493482       -0.65949692842762        0.72532613231274
H            2.30680473056284        0.98978251704176        0.11078972794250
H            2.76694198818247        0.06750735147374       -2.17075252200790
H            2.67954581369920       -1.57455627803457       -1.51167743520200
H            4.62169998552446        1.56295612048703       -1.56123579000624
H            6.92357674630170        1.75715815945204       -0.79119596719031
H            8.65159112996149        1.81001823324363        0.81701555159939
H            9.20136171144928        1.14042857828877       -0.74698991949293
H           10.03428838009630        0.69003240176163        0.76064937965836
H            7.05567174969094       -4.23621171795340        1.65347565939075
H            5.43848001056755       -3.50813558175093        1.79970565785717
H            6.02060041905269       -4.09420497120334        0.21253282636366
H            4.40102758497114       -2.40127266373392       -0.00490198249042
H           -0.22071299714579       -1.61775583601871       -1.65116008982042
H           -1.01972258008625       -1.24102717432227       -0.10935206830928
H            0.55899954147532       -2.04486085926761       -0.12333730421426
H           -4.63991875734388        2.95501092798550       -0.18098088071825
H           -3.76095216473977        2.90314704960906        2.73380821053058
H           -4.87457614030224        1.75695641518947        1.97884603101694
H           -5.31925552549014        3.45579210326349        2.12325564252114
H           -2.60025590131176        4.69225046143352        1.27368918226171
H           -3.03987406413880        4.81897652321898       -0.43870975059559
H           -4.22191740670577        5.18069648090034        0.80616693961239
H           -0.59832433787845        2.77744694953323        2.72958984441332
72
 energy: -5.446920491869 xtb: 6.6.1 (8d0f1dd)
N           -1.50792707943440        2.78257287920612        2.23306961395051
C           -1.55710796009311        2.15312720804950        1.14695702524202
C           -2.74783491048243        2.07456157669705        0.23403645799386
C           -3.32168713698031        0.65702424462263        0.32035892708559
C           -4.30808521742307        0.24332851571005       -0.57825949801027
C           -4.85180421274309       -1.02653395709638       -0.52957308021557
O           -5.82422406654524       -1.49543190815103       -1.36102893739066
C           -6.40074312056492       -0.61785889332329       -2.29347257328571
C           -4.40046908306611       -1.94592221032321        0.44339807811338
O           -4.99503257082315       -3.17124030190371        0.41476836008662
C           -4.66465543886688       -4.10270015745220        1.41287126584323
C           -3.42062011051236       -1.54233840316866        1.32939281312998
C           -2.88835881147928       -0.25754934037810        1.26651408317056
C           -2.19237007562059        2.29283558336113       -1.19693933555479
C           -1.25982709241029        1.16849770296946       -1.67942335491446
C            0.01250006479183        1.12079883249187       -0.91610000653740
N            0.63696872981639       -0.05369884826113       -0.56115867437756
C            2.00670287314269       -0.03913886103099       -0.16163203973363
C            2.94149105953763       -0.54648958905611       -1.28175371601092
C            4.36564355699009       -0.43796714525142       -0.84074413437509
C            5.08184364966252        0.72674983649128       -1.04442274598698
C            6.39219610952473        0.83915944345656       -0.60367278302020
C            7.00300505508210       -0.21129937740026        0.05733041554680
O            8.28115428755717       -0.21231874992955        0.52872762536026
C            9.07338518755655        0.92809058325044        0.32087369990189
C            6.27680549010161       -1.40332525079235        0.27966721484699
O            6.95956223762496       -2.38527224891254        0.93218595445529
C            6.32339132201375       -3.61685830084622        1.15385003478796
C            4.97247834887395       -1.49723468416644       -0.16506680672607
C           -0.04461419631021       -1.31326192858580       -0.62141520266511
C           -3.86294686069082        3.11428487051156        0.57039650152050
C           -4.50559796577901        2.78908921964510        1.91624381459985
C           -3.43245248140424        4.58577208729295        0.60829824191249
H           -4.66342687575791        0.93840854025783       -1.32071196706169
H           -6.85263803467558        0.25201571731083       -1.80519870892324
H           -7.17958802139300       -1.19460273216419       -2.79044476032921
H           -5.67245436272389       -0.28066477883518       -3.03903878314644
H           -4.88063242136548       -3.71608887090778        2.41448341828984
H           -5.29355098197333       -4.97029184645031        1.21871376208795
H           -3.61206526379503       -4.40153094661933        1.35826662228322
H           -3.06507949990670       -2.21835102017644        2.09241573771735
H           -2.14264766737922        0.02154911403162        1.99623930618779
H           -3.02168708652331        2.37215003081832       -1.90075840543915
H           -1.64517637420461        3.23656266916047       -1.21809913870683
H           -1.79378953674466        0.21961313771301       -1.62779543507426
H           -1.01976769388084        1.36447229761935       -2.73303767405363
H           -0.68897145540063        1.65108891097999        0.65637157972765
H            0.65275093785728        1.98421047539635       -0.96076169030613
H            2.12859113229525       -0.66988712088342        0.72604025943414
H            2.30182419299520        0.97911404886674        0.10406902390200
H            2.77269901142293        0.05999615460365       -2.17309969430932
H            2.68837209527670       -1.58170124261477       -1.51562396718316
H            4.62706185238471        1.55647443553540       -1.56479140032809
H            6.92953851969401        1.75509278542254       -0.79036751960340
H            8.65415299196817        1.80994673088585        0.81733912265785
H            9.20626200506197        1.14067743578700       -0.74541806941399
H           10.04011905643623        0.69315629956129        0.76315330631405
H            7.06200339535929       -4.23886670298803        1.65739090612723
H            5.44419863971165       -3.50957589200479        1.79844603156538
H            6.02930309098752       -4.09667585263123        0.21403413438810
H            4.40921641470135       -2.40437730429876       -0.00761595868720
H           -0.21272115957580       -1.63711229220197       -1.65475901213975
H           -1.01148078807586       -1.25355319960227       -0.11358283428021
H            0.56427483071366       -2.06210964026635       -0.11965742429456
H           -4.61918918782433        3.00806387774012       -0.21528722065214
H           -3.76987514713928        2.92090604822309        2.70326319270916
H           -4.87967056077416        1.76953478394311        1.94823963312745
H           -5.33459196526717        3.47115290263723        2.08726295084943
H           -2.65192093637754        4.73969525273919        1.34705126465459
H           -3.07339161578354        4.91308373675692       -0.36470965492125
H           -4.27989939661445        5.21676840055391        0.88112270128809
H           -0.61766640786667        2.77127282380330        2.72719814910450
72
 energy: -4.047197916001 xtb: 6.6.1 (8d0f1dd)
N           -1.52361386825231        2.79473923403043        2.22852251253984
C           -1.56066367767030        2.16150427337755        1.14303503425808
C           -2.74836185766655        2.09062431182613        0.22434809320424
C           -3.32939977464704        0.66735403135070        0.31713419697952
C           -4.31420091799653        0.24161645709004       -0.57912050253067
C           -4.85523572736152       -1.03054587337687       -0.52824850074984
O           -5.82920512425771       -1.50142528138947       -1.35791466422846
C           -6.40570049710844       -0.62591140984690       -2.29191849919685
C           -4.40300144045850       -1.94941753286247        0.44424130548032
O           -4.99819144361582       -3.17515228922707        0.41985028055922
C           -4.66511456643194       -4.10537023684817        1.41857067058068
C           -3.41874145359231       -1.54109458025542        1.32330806586465
C           -2.89002600124679       -0.25361141449294        1.25750023521811
C           -2.18926767316547        2.28350056404601       -1.20865226173559
C           -1.25645597951240        1.15703073034071       -1.69233739171534
C            0.02249017387202        1.11111217732699       -0.94082926898100
N            0.64105615499930       -0.06259087407620       -0.56121296499964
C            2.01212684548471       -0.04770175029115       -0.16522877611058
C            2.94864340596021       -0.55337142864254       -1.28528021063445
C            4.37261805659362       -0.44315569253149       -0.84480913893900
C            5.08820456286773        0.72217216912097       -1.04756110276971
C            6.39784876502055        0.83601671533483       -0.60443565214018
C            7.00903944761456       -0.21352584745653        0.05780656706123
O            8.28669883647516       -0.21306023569189        0.53087934717329
C            9.07796014785504        0.92792351257749        0.32265561273107
C            6.28375754842575       -1.40588220284257        0.27966049312107
O            6.96645267123978       -2.38682471399549        0.93438639500910
C            6.33122568503407       -3.61878906663378        1.15579516453300
C            4.98014462521668       -1.50122118313866       -0.16757989188295
C           -0.03753144222946       -1.32445980260402       -0.62329465021371
C           -3.85754148281409        3.15320554456914        0.55781202464063
C           -4.51765846438105        2.80167886212085        1.88815756230561
C           -3.47061892642434        4.64219376964981        0.66867402236131
H           -4.66916141181680        0.93185621057977       -1.32578813821906
H           -6.85539520150836        0.24590016144956       -1.80521631199068
H           -7.18623030611495       -1.20254828239855       -2.78675534407964
H           -5.67723994078196       -0.29183848534475       -3.03857289407860
H           -4.87743292442664       -3.71704140452152        2.42025786392935
H           -5.29479689537699       -4.97334539497842        1.22798461579662
H           -3.61289998851859       -4.40510428193809        1.36143567734470
H           -3.05949308376862       -2.21749955498278        2.08538304988379
H           -2.13879222408524        0.02030565305054        1.98432137091193
H           -3.01854350774311        2.35819544140240       -1.91343502679131
H           -1.63976404854623        3.22527105622051       -1.23493894178327
H           -1.78596951325681        0.20590832402684       -1.63227651649986
H           -1.03063178546191        1.34993641518203       -2.75109352405964
H           -0.69172073542468        1.65027619378021        0.67316556197514
H            0.66034514217785        1.97649097956156       -0.98322812964372
H            2.13728026652860       -0.67724284062321        0.72332081009813
H            2.30346294444278        0.97152059834833        0.09910925561290
H            2.77897078096880        0.05224631838179       -2.17670814502875
H            2.69680406784333       -1.58902505773202       -1.51919562880394
H            4.63275095020930        1.55120028103298       -1.56808625868055
H            6.93448719969624        1.75277431575215       -0.78966535369010
H            8.65758248368309        1.80978470332845        0.81810456884937
H            9.21125792354938        1.13999719443309       -0.74370505143535
H           10.04478692732889        0.69470686686131        0.76543585726460
H            7.06934010265683       -4.24022431392992        1.66097814847882
H            5.45087890939680       -3.51179908071711        1.79865577512059
H            6.03914918774804       -4.09942691587876        0.21581973979105
H            4.41749454003068       -2.40863754939589       -0.00962768528221
H           -0.20426832542245       -1.65152190873148       -1.65644206740218
H           -1.00487799013976       -1.26562148424580       -0.11702906697854
H            0.57059054961909       -2.07291892575710       -0.11912249222143
H           -4.59371181671563        3.06040018454922       -0.24806725670011
H           -3.78325624383926        2.93795063497407        2.67598027393931
H           -4.88678332017134        1.78092575402385        1.91727408619012
H           -5.34870461709454        3.48267742492944        2.05045828149400
H           -2.70279655300500        4.78939270037555        1.42147831667980
H           -3.10691968578104        5.01087599305614       -0.28926619239224
H           -4.33665821572231        5.24627770832350        0.95757705784833
H           -0.63805034881521        2.77344357053899        2.72964956545982
72
 energy: -1.416863483995 xtb: 6.6.1 (8d0f1dd)
N           -1.53866767612752        2.80724071981334        2.22388459420102
C           -1.56146756470870        2.17366583111705        1.13771149749362
C           -2.74783944304712        2.10788263524216        0.21511301265717
C           -3.33636216302370        0.67818311916777        0.31428656695982
C           -4.31986149267096        0.24070488462652       -0.57964470577417
C           -4.85814167143398       -1.03381850869684       -0.52661485571469
O           -5.83373562075239       -1.50718920225380       -1.35420962664805
C           -6.41074052239285       -0.63480576707646       -2.29040211272147
C           -4.40484318731679       -1.95227395173788        0.44519301911092
O           -5.00109520043855       -3.17817039185256        0.42475030778056
C           -4.66599929125979       -4.10770360711589        1.42364959650613
C           -3.41605534759238       -1.53952995470524        1.31737228965888
C           -2.89084318644159       -0.24932899186827        1.24858488196847
C           -2.18574283182949        2.27423392723143       -1.22066438893214
C           -1.25364073999688        1.14313720686678       -1.70349351778745
C            0.03170734873813        1.09993731185473       -0.96445798701958
N            0.64543262230359       -0.07233353664809       -0.56095244216760
C            2.01790774464332       -0.05625289927028       -0.16908537942629
C            2.95616264278619       -0.56011376355552       -1.28905157798035
C            4.37989031690573       -0.44839489649521       -0.84886074825308
C            5.09485598520065        0.71748356803746       -1.05078322232064
C            6.40389365565428        0.83265955946764       -0.60573402979854
C            7.01550028431373       -0.21602330173465        0.05764637819047
O            8.29267404834307       -0.21398738730866        0.53252732838862
C            9.08268498620975        0.92786011936897        0.32446594684493
C            6.29106980049524       -1.40867948056646        0.27897716267076
O            6.97357724596876       -2.38878251947435        0.93581717366324
C            6.33876802394272       -3.62084900608009        1.15708223957857
C            4.98807578853690       -1.50532132933731       -0.17033826138185
C           -0.02972655370999       -1.33655610313533       -0.62482891649951
C           -3.85241950756019        3.19414747418726        0.54727375342635
C           -4.53182083626826        2.81513822999343        1.86011614735623
C           -3.50957645357083        4.69919887001029        0.72931623595252
H           -4.67568594780312        0.92636999614471       -1.32977508030185
H           -6.85900024930025        0.23899435591486       -1.80605893779945
H           -7.19247969495798       -1.21237729019459       -2.78260199403527
H           -5.68240202093817       -0.30401694795599       -3.03851350337146
H           -4.87497100232900       -3.71802062070324        2.42544150298822
H           -5.29689890360446       -4.97556025226655        1.23589839666988
H           -3.61431335672196       -4.40883975964411        1.36399842302021
H           -3.05332102075246       -2.21609312429736        2.07868944472429
H           -2.13506877144155        0.01981759716605        1.97315127060240
H           -3.01473922474280        2.34452130602474       -1.92662898302789
H           -1.63314431251214        3.21375062417996       -1.25352826609539
H           -1.77901248564123        0.19035042585413       -1.63412613344021
H           -1.04159222386404        1.33106609371226       -2.76724046722116
H           -0.69372554460968        1.64965780047291        0.69000009238042
H            0.66809270261170        1.96670016875036       -1.00419197969327
H            2.14688886184191       -0.68422981117111        0.72040044606819
H            2.30533512826477        0.96406642911710        0.09379719303236
H            2.78587352557744        0.04480921380945       -2.18055197706882
H            2.70555284349641       -1.59611890754504       -1.52323740450196
H            4.63873932294040        1.54563730213640       -1.57181480875212
H            6.93994968944744        1.75007141732879       -0.78986075920095
H            8.66078796502789        1.80950084498870        0.81901456082707
H            9.21664112577014        1.13979478235381       -0.74187113695828
H           10.04953531170079        0.69655926090603        0.76799755255118
H            7.07609221009328       -4.24188365157770        1.66410613897866
H            5.45722824990175       -3.51373866594302        1.79813272827470
H            6.04853035689923       -4.10240117494018        0.21702161396549
H            4.42600213867174       -2.41304594877265       -0.01229999949716
H           -0.19447613501438       -1.66703352548651       -1.65774404905831
H           -0.99808917469398       -1.27873563582169       -0.12082485277037
H            0.57781198988555       -2.08405990173598       -0.11764376571042
H           -4.56707260726013        3.11415263616935       -0.27927314357043
H           -3.80027270611453        2.95560162817728        2.65011227360572
H           -4.89572854709971        1.79298217654506        1.88560226086537
H           -5.36548275858626        3.49429379075018        2.01274867519617
H           -2.75486063896353        4.83969810697749        1.49635869556135
H           -3.14115401558593        5.10820528288098       -0.21246908811407
H           -4.39415422546954        5.27526848357946        1.03271723970577
H           -0.65774955389961        2.77396818645373        2.73121626459477
72
 energy: 2.446479854843 xtb: 6.6.1 (8d0f1dd)
N           -1.55482152322414        2.81962139732744        2.22011017667506
C           -1.56358125438502        2.18737251330953        1.13271987043856
C           -2.74697883529456        2.12481524413214        0.20670033349399
C           -3.34320436744779        0.68754228000379        0.31146589631168
C           -4.32510991071204        0.23888282427324       -0.58055227403177
C           -4.86120698210345       -1.03768888937105       -0.52509193849518
O           -5.83869849319351       -1.51294106607365       -1.35065893862048
C           -6.41574574138045       -0.64310322760984       -2.28884692046261
C           -4.40712170608809       -1.95568626232343        0.44625948571054
O           -5.00441685254737       -3.18172978677171        0.42998296406358
C           -4.66652091643675       -4.11009854706359        1.42923220982251
C           -3.41341082053375       -1.53934146207864        1.31148658750879
C           -2.89110030762491       -0.24676113442028        1.23939246831445
C           -2.18272501895858        2.26467956886969       -1.23224338486151
C           -1.25116175483262        1.12896311988114       -1.71451499037469
C            0.04024998391723        1.08839912675595       -0.98783192532385
N            0.64954733629974       -0.08209658799922       -0.56152286864530
C            2.02333715062110       -0.06468774207385       -0.17347632991791
C            2.96355077924129       -0.56697441624387       -1.29293996351755
C            4.38695444238015       -0.45370983193889       -0.85258797939781
C            5.10120919346537        0.71278120716682       -1.05367808677266
C            6.40963244651112        0.82942148249033       -0.60674581942205
C            7.02168724742669       -0.21840128583073        0.05773495029409
O            8.29842773904284       -0.21484291164552        0.53432334889952
C            9.08731439817202        0.92772242888664        0.32627992895702
C            6.29816503613509       -1.41137248913581        0.27863650373024
O            6.98067156994272       -2.39056247294004        0.93749345045064
C            6.34656736029410       -3.62285134823023        1.15872008027992
C            4.99578598883363       -1.50943379231616       -0.17273293966370
C           -0.02245899855993       -1.34841410576692       -0.62709506534041
C           -3.84821273584761        3.23702524672643        0.53957002367725
C           -4.54572276690560        2.82848526497366        1.83281124780406
C           -3.54888481278844        4.75701954546498        0.79003192101444
H           -4.68185147363149        0.92022666425085       -1.33392742936132
H           -6.86231973414114        0.23270740704218       -1.80665984174995
H           -7.19886851838657       -1.22105355241238       -2.77877580559765
H           -5.68737903661336       -0.31552336180686       -3.03825018500469
H           -4.87197226087384       -3.71882099782919        2.43106943057809
H           -5.29819262649089       -4.97824388301183        1.24487126399576
H           -3.61520403483790       -4.41206534588134        1.36687551758663
H           -3.04767077846447       -2.21572577189292        2.07228114370592
H           -2.13116645664743        0.01806902535061        1.96179248533163
H           -3.01136036465441        2.33044935615821       -1.93948602654523
H           -1.62676603150299        3.20172616185347       -1.27205556308959
H           -1.77219255746970        0.17460456279750       -1.63646182429554
H           -1.05231308179924        1.31165574377774       -2.78290316642175
H           -0.69583806944714        1.65153835872108        0.70671550469880
H            0.67594376643438        1.95598817869871       -1.02488838989125
H            2.15604658571685       -0.69095410433939        0.71701885668496
H            2.30711017571555        0.95665617036762        0.08808117291456
H            2.79285251391690        0.03720224830446       -2.18461368297492
H            2.71411837268409       -1.60332316890756       -1.52732522714420
H            4.64440400954711        1.54004047082661       -1.57528038828862
H            6.94504662028961        1.74751466166670       -0.78980056749957
H            8.66409747838618        1.80926509927098        0.81988727764028
H            9.22188741675004        1.13938974449808       -0.74006719866435
H           10.05418124188833        0.69821858431763        0.77051106587790
H            7.08332741291549       -4.24326888296119        1.66751580806479
H            5.46388882751762       -3.51583718289565        1.79807854615117
H            6.05820170392530       -4.10542026302305        0.21861814652385
H            4.43431772010765       -2.41750125470936       -0.01470479087718
H           -0.18558641136452       -1.68197803013820       -1.65972641821603
H           -0.99173208898647       -1.29135569511404       -0.12504214759579
H            0.58446639655394       -2.09511252841396       -0.11709747754527
H           -4.53940808828013        3.16839841501168       -0.30828128350432
H           -3.81700264192768        2.97264228120094        2.62486724074392
H           -4.90363683166820        1.80457587014455        1.85406985588963
H           -5.38246748582787        3.50475761229836        1.97582941030569
H           -2.80635411544054        4.89003466692956        1.56998764289713
H           -3.17694391549396        5.20583705192759       -0.13451675835714
H           -4.45046166124032        5.30582746232715        1.10773363827535
H           -0.67763807151163        2.77528916155915        2.73167995511517
72
 energy: 7.558925913886 xtb: 6.6.1 (8d0f1dd)
N           -1.57162984651925        2.83165657666489        2.21611302807059
C           -1.56657607030925        2.19974077378564        1.12807500480343
C           -2.74581487359789        2.13992866793214        0.19687068080466
C           -3.35009579555376        0.69459190701578        0.30690483510044
C           -4.33079640949329        0.23630667833361       -0.58240532666960
C           -4.86436684046089       -1.04221075173415       -0.52388216862394
O           -5.84379877518777       -1.51909366172354       -1.34736166313510
C           -6.42067852316223       -0.65139628379249       -2.28734806877211
C           -4.40949390519952       -1.95925451434244        0.44744160989676
O           -5.00771963158591       -3.18547644029192        0.43532320536749
C           -4.66710668731944       -4.11262788612926        1.43495220929321
C           -3.41080186005874       -1.53957167361455        1.30573861205651
C           -2.89153263195115       -0.24489782952182        1.23000331578690
C           -2.17988084198067        2.25559269899286       -1.24435603242835
C           -1.24880664854595        1.11483485652887       -1.72520929781512
C            0.04858272720166        1.07595071167371       -1.01071805222757
N            0.65386206210896       -0.09216016835183       -0.56224618600698
C            2.02887827148207       -0.07320536502090       -0.17775055607925
C            2.97094150595183       -0.57381071325787       -1.29678830028113
C            4.39409098503825       -0.45911905644946       -0.85636682866841