25
 energy: -43.832150615571 gnorm: 0.106527119190 xtb: 6.6.1 (8d0f1dd)
C            3.27889216642132        1.17474282422853        0.08515173402004
N            2.31918196700432        0.10930906856589        0.03288918184375
C            2.60912364672470       -1.24341146699860        0.03389937931496
N            1.40110408916823       -1.92375912732497        0.00433639231601
C            0.39942255606496       -1.02601714355224       -0.01656745458992
C            0.92827327921088        0.25434276452344       -0.00148817747351
C            0.05968941642017        1.36913778778883       -0.04215174603837
O            0.46006529456059        2.57298465252319       -0.01060643682479
N           -1.35083269041029        0.99997788194237       -0.04606224852399
C           -2.25223873647100        2.12154651288855       -0.02773157714296
C           -1.91000104888720       -0.23522248587986       -0.11302267699014
O           -3.07303063959115       -0.44145240266046       -0.11310289453123
N           -0.94999448553806       -1.27543944383907       -0.05392247247676
C           -1.45967607118242       -2.62131718395008       -0.05994172886571
H            3.75599392059887        1.25963889450503        1.07956763075425
H            4.10423041624188        1.00115647362774       -0.63947265066706
H            2.79740075329654        2.10961137306164       -0.15261153043673
H            3.57571925640170       -1.70176916997751        0.05033494698056
H           -1.62435236972479        2.99423578225504        0.02175738209068
H           -2.87648262848524        2.12157601448594       -0.92092072104346
H           -2.91998250668920        2.05131784606440        0.87725200731309
H           -1.17364475555006       -3.15386875725423        0.85123092454749
H           -1.09806601325950       -3.16839296807678       -0.93495895393526
H           -2.54332423522405       -2.52288073119930       -0.11046082847970
H            1.33875219840312       -2.93669489883828       -0.01117720763558
25
 energy: -43.837090821101 gnorm: 0.030794681793 xtb: 6.6.1 (8d0f1dd)
C            3.27704676118540        1.17148094197552        0.08303481724991
N            2.31699337875446        0.11200567528087        0.02861643992340
C            2.60130173880826       -1.24205124261139        0.03363022919946
N            1.40216940239202       -1.92588042070342        0.00288932741864
C            0.39729937912839       -1.03442283805956       -0.01731451835789
C            0.92639463451557        0.24989292038977        0.00149188453646
C            0.07420617143234        1.37374805490046       -0.02849455958313
O            0.44062314858414        2.56414306450997       -0.02026293168123
N           -1.32336887226595        1.01675242565053       -0.04009410793090
C           -2.24803512615877        2.12961934338640       -0.02649204058336
C           -1.87604099388846       -0.22394399709430       -0.08436266565982
O           -3.06232343684115       -0.43370897542108       -0.12183022162271
N           -0.94300790750843       -1.28559716382387       -0.05290024046200
C           -1.45662328384504       -2.63304930200273       -0.06434470478203
H            3.73812085983681        1.24981416150072        1.07825619855090
H            4.08519575530247        0.99745473118620       -0.64271501325672
H            2.77822624473221        2.10706494580778       -0.14734285066151
H            3.56572890734220       -1.69339619811071        0.05077431244640
H           -1.64084796865911        3.02614297848275        0.02200263453467
H           -2.87598141704823        2.12435869651883       -0.91712370339395
H           -2.90562874267717        2.06119375489186        0.85610099835810
H           -1.17197945123283       -3.16447161713862        0.84672623143903
H           -1.09940448486836       -3.18102494068737       -0.93944121970877
H           -2.54178011902077       -2.54512662260603       -0.10865152404546
H            1.33793820150431       -2.93164627931339       -0.00993249840178
25
 energy: -43.837158451340 gnorm: 0.021125593791 xtb: 6.6.1 (8d0f1dd)
C            3.29395971069611        1.17038920406574        0.08374205033619
N            2.32082766511305        0.11803328014884        0.02792497991753
C            2.60030047756297       -1.24028513543149        0.03755776397135
N            1.40262918293893       -1.92238484987763        0.00340793574517
C            0.39377902101115       -1.03425748448051       -0.02538465036139
C            0.92441946029445        0.25043871176207       -0.00895601826614
C            0.07396231583707        1.37592943144249       -0.03853650746264
O            0.42358557429379        2.55887361870451       -0.01071708824517
N           -1.32171780250666        1.01437532345508       -0.05700064467200
C           -2.26201588826849        2.11399331170702       -0.01494160385444
C           -1.86954811792632       -0.22584118496990       -0.10338195015853
O           -3.06604785670127       -0.44522513252369       -0.12857084598524
N           -0.94460462995999       -1.28549906003582       -0.06431641484728
C           -1.46518245708861       -2.62496733726830       -0.05927255067818
H            3.75250611901016        1.25856444136545        1.07661166466288
H            4.10267198968771        0.99233847442996       -0.63142669809291
H            2.80353955914460        2.11136628104511       -0.15649531752732
H            3.56501774894210       -1.69201586298901        0.05345997184640
H           -1.63695473082323        3.00088461570859        0.03261487047356
H           -2.88327022966814        2.12018327023435       -0.91156733061080
H           -2.90685389084903        2.03514989730759        0.86584358456525
H           -1.18611590388194       -3.14317291702070        0.86095552489157
H           -1.10428879842087       -3.17429575396509       -0.92986296416954
H           -2.54888767868449       -2.51781275902812       -0.11070445710048
H            1.33451193975127       -2.92541028687737       -0.00876303085214
25
 energy: -43.837751641090 gnorm: 0.010630851437 xtb: 6.6.1 (8d0f1dd)
C            3.28567574629771        1.17161303297059        0.08515389318206
N            2.31807324198045        0.11457709548837        0.03135907682332
C            2.60071021890817       -1.24442719062814        0.03620036576241
N            1.40135136057064       -1.92510500475703        0.00519371832163
C            0.39069090052051       -1.03598638285182       -0.01651054925368
C            0.92109899865525        0.24723828144053       -0.00088712755575
C            0.07417878948822        1.37597815050742       -0.03205726377786
O            0.43493584411414        2.55859452663373       -0.01289981497258
N           -1.32636467541885        1.01472405155886       -0.04881707521502
C           -2.25887166234183        2.12127545768782       -0.02150035187200
C           -1.87556329533975       -0.22529512199008       -0.09045116289696
O           -3.07012524061156       -0.44294968890538       -0.10822934180329
N           -0.94970337430049       -1.28543669992758       -0.05462938381971
C           -1.45999909015159       -2.62889123661479       -0.06240895274211
H            3.74961411225338        1.25787595453868        1.07653008687604
H            4.09051227588967        1.00351094277942       -0.63889605792178
H            2.78765388805304        2.11028256366362       -0.14730484684901
H            3.56730548946430       -1.69647199036501        0.04514604511051
H           -1.62494096735557        3.00260962206113        0.01567811078873
H           -2.87169865981683        2.12170664891237       -0.92410656267276
H           -2.90985347786306        2.05977256497820        0.85958741133462
H           -1.17006795645247       -3.15918245418830        0.84735204900449
H           -1.09672174960152       -3.16530136535075       -0.94028725388907
H           -2.54439226251633       -2.53176271321036       -0.10930218074023
H            1.33272432507865       -2.92959694752231       -0.01169255769633
25
 energy: -43.837737594107 gnorm: 0.011692442207 xtb: 6.6.1 (8d0f1dd)
C            3.28218368464205        1.17062460906676        0.08255915658827
N            2.31827472426290        0.11334526186059        0.02798454257636
C            2.60344797986156       -1.24451921796121        0.03787230771296
N            1.40428022005113       -1.92534125488958        0.00471089746750
C            0.39348400206610       -1.03537257228970       -0.01907046030860
C            0.92249771919358        0.24791353173174       -0.00370414129931
C            0.07740402184648        1.37887836331537       -0.03374303051917
O            0.44470113921833        2.56390528477420       -0.01976082443693
N           -1.32617540373866        1.01787683980132       -0.05001664109587
C           -2.25787827459122        2.12694681902969       -0.01788755333567
C           -1.87404543428322       -0.22253191201224       -0.09885092103727
O           -3.06493338219709       -0.43733322961798       -0.12447396816328
N           -0.94838153444511       -1.28448230063984       -0.05918116123079
C           -1.45824552321511       -2.63097022808495       -0.06216919735836
H            3.73937526101229        1.25244089498640        1.07853220658478
H            4.09004854730053        0.99654026123940       -0.64013637291964
H            2.78437247277729        2.10779954956286       -0.15240918009354
H            3.57060581308307       -1.69513445134453        0.05449199721192
H           -1.64055431542830        3.01989965876109        0.02762857479253
H           -2.87903753653845        2.12769141220363       -0.91391353377859
H           -2.90802633115183        2.05129466591544        0.86525556369670
H           -1.17361162749837       -3.15778702556275        0.85125881338412
H           -1.09773134554252       -3.18172118752650       -0.93323421798668
H           -2.54261657058108       -2.53926509796536       -0.11042708573315
H            1.33678447339994       -2.93134657744467       -0.00909549719261
25
 energy: -43.837943290633 gnorm: 0.003870667551 xtb: 6.6.1 (8d0f1dd)
C            3.28665404371475        1.17126134839909        0.08425258181455
N            2.31913655649397        0.11592693674310        0.02898465588616
C            2.60243743482889       -1.24243090142811        0.03513642882149
N            1.40441423168563       -1.92380076151422        0.00296155289592
C            0.39347687745609       -1.03507002045942       -0.01845587880302
C            0.92235289133949        0.24864661076985       -0.00203174077638
C            0.07561726116315        1.37767801682514       -0.03056505737701
O            0.43473867626631        2.56268669522105       -0.01384101187832
N           -1.32605632134796        1.01449383740489       -0.04760140674490
C           -2.25831038529070        2.12198705834191       -0.02141043955911
C           -1.87308416472656       -0.22534989055791       -0.09229261744195
O           -3.06554881610139       -0.44212753854258       -0.11884960767466
N           -0.94774410672291       -1.28538750616348       -0.05653874196728
C           -1.46147477012512       -2.62888120472154       -0.06177747279898
H            3.74741910715158        1.25361777523314        1.07791501450586
H            4.09364255959105        0.99657077353408       -0.63768915946462
H            2.79175899135448        2.11054476189098       -0.14982311722632
H            3.56876217922746       -1.69301992156089        0.04794110182040
H           -1.63584300954519        3.01146394709183        0.02127937001213
H           -2.87674028811625        2.11978538911671       -0.91947879956693
H           -2.90870589784056        2.05156574221169        0.85950718992080
H           -1.17806325271617       -3.15669792459937        0.85141872111980
H           -1.10323354511737       -3.17507651550092       -0.93638919945989
H           -2.54559632371129       -2.52998162195844       -0.10874110420798
H            1.33621285059293       -2.92905298886739       -0.01169098832409
25
 energy: -43.837890819553 gnorm: 0.006238565924 xtb: 6.6.1 (8d0f1dd)
C            3.28490759069885        1.17147600748777        0.08365243989191
N            2.31808057734742        0.11475600247056        0.02958735126777
C            2.59984610772648       -1.24439037658586        0.03855254259133
N            1.40168432830597       -1.92477059771701        0.00568706515019
C            0.39136885372015       -1.03571949128099       -0.01968039914821
C            0.92102681981412        0.24727233392672       -0.00484343190038
C            0.07563691749638        1.37635002202719       -0.03661438797301
O            0.43356855615734        2.55976464171095       -0.01661372331316
N           -1.32626936916979        1.01391294897913       -0.05142214043542
C           -2.25722574419058        2.12196797618152       -0.01790017037536
C           -1.87410078179918       -0.22522076161432       -0.09564185532700
O           -3.06806592982343       -0.44188941155280       -0.11712551285843
N           -0.94936576591612       -1.28524306352532       -0.05888071629036
C           -1.45914908344224       -2.62902237098558       -0.06291069164218
H            3.74615500614097        1.25920897856366        1.07627721153632
H            4.09173714007766        1.00033747725296       -0.63807546498278
H            2.78729088206744        2.10923513943995       -0.15199865046444
H            3.56553594913416       -1.69620634523228        0.05292185697968
H           -1.62698117212679        3.00569789983210        0.02475906841224
H           -2.87569543958796        2.12652008558041       -0.91611433706141
H           -2.90521749809265        2.05375315386505        0.86436325832314
H           -1.17171977236563       -3.15469569409462        0.85040271688394
H           -1.09481827948827       -3.17040473040878       -0.93764920971585
H           -2.54369876982916       -2.53374404335336       -0.11153538473968
H            1.33169165664918       -2.92959368405786       -0.00697716128316
25
 energy: -43.837973142495 gnorm: 0.001416031104 xtb: 6.6.1 (8d0f1dd)
C            3.28561085628578        1.17088619152160        0.08433342043067
N            2.31894492305169        0.11472952961929        0.02940058344665
C            2.60169811668729       -1.24398103811797        0.03612625616867
N            1.40348433685749       -1.92454783096337        0.00366543620230
C            0.39268313843223       -1.03547248380277       -0.01883484923280
C            0.92193790580415        0.24776773917173       -0.00292571416000
C            0.07672341933650        1.37747119684443       -0.03290206240644
O            0.43699084099418        2.56129815586284       -0.01471497263778
N           -1.32625623437656        1.01523426537556       -0.04975122695077
C           -2.25899164822098        2.12251322115060       -0.02001137764869
C           -1.87343911558978       -0.22434019216643       -0.09495078456596
O           -3.06656237036321       -0.44067186886937       -0.11841195860635
N           -0.94861180114951       -1.28481284301529       -0.05758089942737
C           -1.45995545357821       -2.62885070625059       -0.06129397946741
H            3.74636306033981        1.25485650248681        1.07777134112811
H            4.09231479387458        0.99889999829506       -0.63819817202852
H            2.78888671871265        2.10931638202215       -0.14966560466631
H            3.56804450632203       -1.69511337996302        0.04874069020188
H           -1.63450009987101        3.01034022750830        0.02294888344551
H           -2.87661850978434        2.12309456757922       -0.91876303527549
H           -2.90957989715609        2.05241682712448        0.86114063137981
H           -1.17419458724353       -3.15579030158649        0.85178541555723
H           -1.09867499851880       -3.17360722431977       -0.93533050886264
H           -2.54436125589280       -2.53260853785284       -0.10911518719624
H            1.33428613455075       -2.92967630074497       -0.01124205130236
25
 energy: -43.837923086558 gnorm: 0.004378453243 xtb: 6.6.1 (8d0f1dd)
C            3.28554036643883        1.17197030532005        0.08248026427235
N            2.31876298423273        0.11615672390680        0.02909294009195
C            2.60247379765247       -1.24206703871465        0.03842029687800
N            1.40494150741204       -1.92376322250446        0.00575884741788
C            0.39329364943890       -1.03559248640656       -0.01783339886974
C            0.92164224008783        0.24837142804779       -0.00232080919751
C            0.07605014866969        1.37765635666776       -0.03219434568938
O            0.43493902943223        2.56270507745114       -0.01674341799001
N           -1.32669558663539        1.01398871827211       -0.04762844745743
C           -2.25713625782203        2.12269665267691       -0.01950151242546
C           -1.87350376965241       -0.22580374272306       -0.09226324674375
O           -3.06598404862859       -0.44244857386678       -0.11783569273917
N           -0.94826815171093       -1.28599727049283       -0.05718243461643
C           -1.46175905122939       -2.62977890286022       -0.06454136350025
H            3.74541073318920        1.25626421215852        1.07646488775581
H            4.09307498937306        0.99577022521319       -0.63868283285616
H            2.79078236391670        2.11070110661142       -0.15401670428498
H            3.56933013024691       -1.69195938997919        0.05338844078240
H           -1.63289638441049        3.01099446410975        0.02134750292096
H           -2.87708540776417        2.12132098074483       -0.91649791371535
H           -2.90507035654743        2.05330477788703        0.86374631484455
H           -1.17878508541591       -3.15972473772402        0.84755724067160
H           -1.10379688544275       -3.17525601030195       -0.93979885349375
H           -2.54590244827469       -2.53100679392905       -0.11179544469992
H            1.33686427294790       -2.92915076265533       -0.00720004383055
25
 energy: -43.837970985715 gnorm: 0.001665160031 xtb: 6.6.1 (8d0f1dd)
C            3.28544825490507        1.17148151639829        0.08363084363795
N            2.31867826067046        0.11557598325589        0.02902336511896
C            2.60177675856103       -1.24290986647521        0.03685832770706
N            1.40403025636869       -1.92403570398692        0.00433872014533
C            0.39284477527217       -1.03546956518006       -0.01865667882990
C            0.92153687457521        0.24820273786344       -0.00290402757334
C            0.07619193325199        1.37759799506347       -0.03263542292008
O            0.43504159261167        2.56223872060161       -0.01579980434442
N           -1.32669842792123        1.01429407092073       -0.04875414405821
C           -2.25754580490997        2.12269313998695       -0.01987017418662
C           -1.87361583291136       -0.22535136824252       -0.09365541539836
O           -3.06638941393139       -0.44194840445940       -0.11849452210582
N           -0.94852498098579       -1.28550852707120       -0.05753556577534
C           -1.46068060439851       -2.62944820237739       -0.06268646022905
H            3.74582988172053        1.25532838620562        1.07734871181536
H            4.09265147685044        0.99737969646507       -0.63814142718843
H            2.78985900361147        2.11021305062139       -0.15133010618662
H            3.56830439846039       -1.69348024621570        0.05078608196786
H           -1.63266115679516        3.01039762265175        0.02249738493352
H           -2.87637110967265        2.12273433346948       -0.91769203188745
H           -2.90664538398960        2.05281237757556        0.86231389659350
H           -1.17621374782587       -3.15716328942938        0.85029349627062
H           -1.10089996944009       -3.17483401384605       -0.93715147178732
H           -2.54496789494590       -2.53214257733176       -0.11019467648682
H            1.33524364037273       -2.92930576955448       -0.00936862570670
25
 energy: -43.809584216474 gnorm: 0.183015986488 xtb: 6.6.1 (8d0f1dd)
C            3.32491104668314        1.17279252322692        0.08241034572545
N            2.34307753219001        0.13973186839367        0.01661343319452
C            2.61963470147757       -1.27777475092664        0.05511051476317
N            1.36553376539901       -1.89924819973275        0.01171649125449
C            0.39930747024038       -0.99095298541392       -0.02991088565673
C            0.92795621089654        0.29409884541886       -0.02947960629720
C            0.06522486506951        1.36430917865948       -0.03572955569501
O            0.39257237417200        2.58476832113522       -0.02160810186553
N           -1.46212733937899        0.95934517839485       -0.04691165104711
C           -2.28865558187620        2.09281524752360        0.00420356953734
C           -1.98694396671877       -0.26874087128027       -0.13523871195191
O           -3.12502718504115       -0.51910160677433       -0.17386582332748
N           -0.96296847112025       -1.24511576435733       -0.07964495398450
C           -1.44150088372426       -2.59933225267073       -0.05984959982490
H            3.79738888423210        1.30689487736422        1.09586682606844
H            4.19506621022501        0.94662736251075       -0.60202478352824
H            2.89447938257299        2.11879012247676       -0.21882871689940
H            3.56138266226459       -1.76848448039706        0.06649434925004
H           -1.59148986805044        2.90182428052984        0.09466369358131
H           -2.93299076699191        2.14798685590474       -0.88260899263702
H           -2.96385325785611        2.05110599209047        0.91142932464255
H           -1.18043457366910       -3.11315299390742        0.87364265634978
H           -1.04884494572213       -3.16878302027192       -0.91300828834316
H           -2.52686360389253       -2.49971283324579       -0.15607719225678
H            1.29845767789555       -2.91912049736339       -0.00328503497201
25
 energy: -43.825674475622 gnorm: 0.056133295397 xtb: 6.6.1 (8d0f1dd)
C            3.32012348008647        1.16087893065180        0.07797506213133
N            2.33348107676898        0.12879296679385        0.01686386894988
C            2.59683601364169       -1.25674841751939        0.05657200117461
N            1.37521768754450       -1.90691414534188        0.01142213961114
C            0.39253851339237       -1.00931871583520       -0.03091718351176
C            0.92680468463147        0.27781682393937       -0.02313678982534
C            0.07035530148979        1.37224224111874       -0.03197746228752
O            0.36721186164639        2.57226394797356       -0.02257025008097
N           -1.40416938071718        0.98695268511660       -0.04168466968400
C           -2.28494631509732        2.11005207295595        0.00859294464582
C           -1.93172453591116       -0.25011918777805       -0.11626562568907
O           -3.10613473068486       -0.50235251949331       -0.17598434038221
N           -0.94822656593484       -1.26732992823873       -0.07974616624985
C           -1.43852983088756       -2.62071027810759       -0.06613933047408
H            3.76104586735758        1.28598807686796        1.08747685572156
H            4.16541036636590        0.93975633652376       -0.60272319481193
H            2.87595800580047        2.10801227875350       -0.21431887176615
H            3.54627292385744       -1.73537820612559        0.06461245956342
H           -1.62470255571284        2.96492024611700        0.08809252360548
H           -2.92575323782344        2.15882715298604       -0.87622849286017
H           -2.94843690225747        2.05579127002699        0.89463004605168
H           -1.18072045782667       -3.12524022313808        0.86870797092483
H           -1.05017166160399       -3.18770601238867       -0.91642018962635
H           -2.52352523382214       -2.53360201359322       -0.15189451962561
H            1.30907796497297       -2.91530498497758       -0.00085947942462
25
 energy: -43.826854701927 gnorm: 0.028672829667 xtb: 6.6.1 (8d0f1dd)
C            3.34085097961350        1.16221577761985        0.08099104536751
N            2.33772115427696        0.12848799914856        0.02109170489030
C            2.58922460554177       -1.24677127552835        0.05786037705327
N            1.37714454590777       -1.90123621674345        0.01046143432212
C            0.38296959146562       -1.00661509454583       -0.03507232232656
C            0.92583758100088        0.27663517541929       -0.02571248080298
C            0.05926419278692        1.37972629805414       -0.03885259495338
O            0.35652956286893        2.56943454787065       -0.02388136959940
N           -1.38706809788801        0.98235942229879       -0.05216501306951
C           -2.30071285396868        2.08860206399091        0.01773854805602
C           -1.92055224557889       -0.25251763282003       -0.12675706853481
O           -3.10953237133870       -0.51295658599553       -0.18005849038645
N           -0.95091215583563       -1.27059593949197       -0.08528785439011
C           -1.45027061058418       -2.61313316255911       -0.06297267803146
H            3.78635900969279        1.30026541697384        1.07994784217253
H            4.18023521271300        0.94147877512130       -0.59059215400715
H            2.90065166054758        2.11291126277790       -0.21860042616731
H            3.53879365149018       -1.74133679900888        0.06412006941386
H           -1.61835547029720        2.92723683017915        0.09607030976154
H           -2.92736029521028        2.14330156583514       -0.87635932795482
H           -2.94943784486136        2.02573824316074        0.90070684412574
H           -1.19516265719468       -3.10402274358755        0.87877609745296
H           -1.05706099790027       -3.17192763966966       -0.91137208507297
H           -2.53209987554567       -2.50180117991165       -0.15408113143667
H            1.29623606757422       -2.90390871130043       -0.00191996980217
25
 energy: -43.827584649322 gnorm: 0.016345573212 xtb: 6.6.1 (8d0f1dd)
C            3.33046466133422        1.16518461262669        0.08114302763911
N            2.33553473309756        0.12382786175343        0.01859000666871
C            2.59397047600405       -1.25210470206608        0.05495883352821
N            1.37940262117996       -1.90453714487502        0.01053020082484
C            0.38058594251427       -1.00766306430552       -0.03070107070863
C            0.92292706580878        0.27317916198685       -0.02290432279191
C            0.05543255769281        1.37904427579646       -0.03207954042068
O            0.36919328187230        2.56879526776098       -0.02109560415536
N           -1.39085067847784        0.98508563799323       -0.04611230572315
C           -2.29747691084189        2.10090793828125        0.01225845999149
C           -1.92664751795849       -0.25069926515299       -0.11404536337515
O           -3.11330512467177       -0.51034448357182       -0.16631649721125
N           -0.95692554681487       -1.27032234189036       -0.07794671188464
C           -1.44196744770101       -2.61925429195299       -0.06538341356311
H            3.76958926190255        1.29615789404115        1.08591546746257
H            4.16710791637554        0.94968160450802       -0.59912054525764
H            2.87666459155006        2.11240046620082       -0.21299440790914
H            3.54477197248398       -1.75078234097402        0.06172216467405
H           -1.60449829027926        2.93275325188130        0.08314206916326
H           -2.92038525839629        2.15386755954512       -0.88429925484761
H           -2.94871684691176        2.05922764292703        0.89399436967104
H           -1.17420153869816       -3.12168702502926        0.86700452289580
H           -1.04575367099143       -3.17077932779778       -0.91808919586646
H           -2.52516598328326       -2.52159344804813       -0.15206854267721
H            1.29354207248651       -2.90877534235057       -0.00202304004701
25
 energy: -43.827639393184 gnorm: 0.012829389072 xtb: 6.6.1 (8d0f1dd)
C            3.33221582353039        1.16430071078058        0.07806921502917
N            2.33723623843900        0.12631471363060        0.01539463731704
C            2.60052552804882       -1.25079185704125        0.05809783271427
N            1.38527775006471       -1.90451617369595        0.01199706867485
C            0.38589753884447       -1.00624798698199       -0.03333477264729
C            0.92540601176777        0.27511506684676       -0.02699178948692
C            0.05498081953762        1.37845116360937       -0.03529040123646
O            0.37203617728470        2.57234064375000       -0.02262878413025
N           -1.39369845671720        0.98877574094200       -0.05037539199195
C           -2.30045492649909        2.10583908661911        0.01693074853594
C           -1.92631776903412       -0.24796917638216       -0.12655611742163
O           -3.10772200268866       -0.50647453135897       -0.18250192459708
N           -0.95548330139131       -1.26765722124792       -0.08441404474249
C           -1.44261841404878       -2.61849615844961       -0.06427150615173
H            3.76720647829549        1.28784497874166        1.08745591488699
H            4.17110076934552        0.93563039492828       -0.60027661492160
H            2.88357687022297        2.11135861681926       -0.21984544233831
H            3.55191733498547       -1.74479018958113        0.06965582045844
H           -1.62306534747420        2.95178542865231        0.09541938067855
H           -2.93191543696043        2.15715349606434       -0.87262433105092