25
 energy: 0.000000000000 xtb: 6.6.1 (8d0f1dd)
C            3.23720163006194        1.16630919979326        0.08434469647475
N            2.29877817382611        0.07527477071623        0.03981603040599
C            2.58028210190900       -1.21425402444508        0.03006176031096
N            1.43813958087363       -1.93419271955128        0.00098261760884
C            0.39035688448383       -1.05887472636071       -0.00790371836672
C            0.93510056364412        0.21347819449412        0.01709077491437
C            0.09450143893243        1.40504303904423       -0.00410947031874
O            0.49712751527797        2.54126714362870       -0.00342325688240
N           -1.25076640035757        1.06271879480407       -0.03085478223738
C           -2.21907211982101        2.15522099834493       -0.05001256985998
C           -1.81739487048744       -0.20012725993278       -0.04692818574614
O           -2.99983886758376       -0.37846417018721       -0.07008878229737
N           -0.92618586207120       -1.30210215599479       -0.03682761578324
C           -1.46982264913417       -2.64643102187190       -0.06029820460571
H            3.71247264356769        1.21471455160235        1.06488849150277
H            4.00791497605742        1.03430808813993       -0.67357694370751
H            2.69910007168542        2.09770118228144       -0.09130154882931
H            3.56654120610678       -1.63682992603973        0.04233140067262
H           -1.67107961066214        3.09322851271934       -0.02552706933167
H           -2.82428953597071        2.09428624779827       -0.95318082946668
H           -2.87644029173232        2.07745725625962        0.81450067533302
H           -1.17061996399332       -3.19584890659852        0.83242232437030
H           -1.14560257411436       -3.17511610292205       -0.95688275822323
H           -2.55549792440841       -2.55659984320617       -0.07459039797972
H            1.38130855184625       -2.94313852034425       -0.01389874181052
25
 energy: -5.421530858198 xtb: 6.6.1 (8d0f1dd)
C            3.24683389655890        1.17641992744003        0.08640936465884
N            2.30896965530999        0.09597774881818        0.03750617491951
C            2.59991945227494       -1.23228956664812        0.03030985843697
N            1.42748390972419       -1.93931451614029        0.00088131205614
C            0.39634654740756       -1.05492754318787       -0.00845884262398
C            0.93059188424720        0.22354070837681        0.01476144442885
C            0.09987819647775        1.39589357420653       -0.00561278690235
O            0.49586153705851        2.56203212441250       -0.00471832389261
N           -1.26331190019867        1.04980267139607       -0.03136459719487
C           -2.22293730557791        2.14565337130243       -0.04866385072878
C           -1.82704177997768       -0.20130994453581       -0.04849428855984
O           -3.02382694465002       -0.38504288326733       -0.07221687305613
N           -0.93463945662315       -1.29965729359295       -0.03751354589383
C           -1.47118119198040       -2.64163310664728       -0.06015976882164
H            3.72301412703384        1.22438145501661        1.06925835456191
H            4.01703021940335        1.03857267613651       -0.67376702275835
H            2.70276634453352        2.10153040724115       -0.09307745032934
H            3.57804366734970       -1.65917808398827        0.04283380424245
H           -1.65868062042402        3.07440344421677       -0.02366529953298
H           -2.82765274077794        2.09475000014013       -0.95337136161995
H           -2.87962769447016        2.07668612567307        0.81783301387451
H           -1.16867038078736       -3.19136884475381        0.83307348772266
H           -1.14109529175582       -3.17270292854091       -0.95505193428329
H           -2.55632206722990       -2.55016223250351       -0.07616222480073
H            1.36046260500977       -2.94302868839859       -0.01353474775585
25
 energy: -6.547350799416 xtb: 6.6.1 (8d0f1dd)
C            3.25912052813125        1.18116842256856        0.08791165512259
N            2.31668234957051        0.10882049325784        0.03324337258847
C            2.60954733765195       -1.24501667668285        0.03126367784950
N            1.41453817264688       -1.93618403762013        0.00144668392063
C            0.39941203258099       -1.04828818566204       -0.00973258208133
C            0.92723283902758        0.23368812654030        0.01081899358446
C            0.10267838126053        1.38425324491928       -0.00861457231555
O            0.47876869161113        2.56633646309506       -0.00785309504109
N           -1.27804486435718        1.03739013778696       -0.03252385995484
C           -2.22736704119861        2.13716424881423       -0.04579553880046
C           -1.83393677010973       -0.20379860260109       -0.05134374777993
O           -3.03452579420764       -0.39601601748230       -0.07629864755739
N           -0.94098980477429       -1.29450522201580       -0.03903428327455
C           -1.46991735248296       -2.63549003211101       -0.05994633062272
H            3.73744477241704        1.23634440649441        1.07156898162078
H            4.03345168215115        1.04387405362833       -0.67020925585353
H            2.71608960569113        2.10576478029982       -0.09601821023026
H            3.58054344041710       -1.67952116062044        0.04407452708961
H           -1.64245335960528        3.05343941252113       -0.01929602227497
H           -2.83346524346757        2.09793047746000       -0.95064458645888
H           -2.88352205430326        2.07629266778854        0.82227738540431
H           -1.16764411550499       -3.18397649493959        0.83527048038078
H           -1.13400437032985       -3.17005560247623       -0.95177755031298
H           -2.55494223804248       -2.54288002489855       -0.07988027608098
H            1.33751784316282       -2.93770627589243       -0.01187330277434
25
 energy: -6.552957390899 xtb: 6.6.1 (8d0f1dd)
C            3.26855483937676        1.18044199711548        0.08788334922277
N            2.32052387687935        0.11184112228173        0.02905367386457
C            2.60919673780473       -1.24987811915319        0.03264564521871
N            1.40777228447643       -1.93189948316704        0.00272021133477
C            0.39942179651171       -1.04355551664999       -0.01141340743704
C            0.92706524712850        0.23976929460339        0.00668167856355
C            0.10124169771851        1.38205393457445       -0.01240201579395
O            0.46051328775632        2.56839887639845       -0.01196249177243
N           -1.28799042264050        1.03262488123933       -0.03434047121163
C           -2.23165041032172        2.13431412025383       -0.04195217781542
C           -1.83837645149162       -0.20684991046405       -0.05516866353608
O           -3.03795151474353       -0.40671011265882       -0.08156595709032
N           -0.94231477550997       -1.29118719448686       -0.04130235573056
C           -1.46639048372291       -2.63278721935106       -0.05974499945144
H            3.74566762296831        1.24130285903664        1.07261354126464
H            4.04874729602118        1.04293506136892       -0.66496995300455
H            2.73257411397436        2.10863645971771       -0.10103843693316
H            3.57668839417891       -1.69145734661767        0.04568629399636
H           -1.63455348817526        3.04252202595790       -0.01323536685669
H           -2.84006397619759        2.10332019918925       -0.94561644881122
H           -2.88637782367564        2.07576349109998        0.82740355188014
H           -1.16758303874060       -3.17714141898576        0.83922255789907
H           -1.12529803802605       -3.16994241885939       -0.94810656235066
H           -2.55155073621255       -2.54015821721976       -0.08520529876251
H            1.32434863259908       -2.93332876305146       -0.00885200053963
25
 energy: -6.233370879205 xtb: 6.6.1 (8d0f1dd)
C            3.28676284802905        1.17516182985007        0.08661332828941
N            2.32643926540270        0.11475641957651        0.01968874117860
C            2.60445015164802       -1.25438503604066        0.03626783602273
N            1.39791508682839       -1.92310523004330        0.00635362580129
C            0.39767321346893       -1.03366593788308       -0.01587389075203
C            0.92802022604286        0.25109177199451       -0.00344628916205
C            0.09632785923334        1.38416457074684       -0.02230501735144
O            0.42686946806957        2.57491032472979       -0.02250383524811
N           -1.30474344988693        1.02742123489512       -0.03950784166325
C           -2.24159114547973        2.13149467026005       -0.03167267792843
C           -1.84711544433093       -0.21217347422112       -0.06530801392517
O           -3.04383216393502       -0.42574712813886       -0.09516839112002
N           -0.94297300149717       -1.28531567136068       -0.04772168824748
C           -1.45710871131736       -2.62983939368101       -0.05939537064514
H            3.75537489961887        1.24404117895421        1.07592843198472
H            4.08035411655286        1.03010920431420       -0.65217059375945
H            2.76929009047713        2.11182103933918       -0.11657638057441
H            3.56614153202129       -1.70926254297800        0.04990573239165
H           -1.62870089683492        3.02852493090513        0.00297941209155
H           -2.85623767893624        2.11697608192539       -0.93168290606514
H           -2.89180210755192        2.07235865821196        0.84104704289940
H           -1.16783384459663       -3.16232528376471        0.84980729247276
H           -1.10219141506833       -3.17336483848702       -0.93838251062878
H           -2.54257310010189       -2.54010295339963       -0.09971590885658
H            1.30329887008032       -2.92451582353286       -0.00012623105734
25
 energy: -4.408161284207 xtb: 6.6.1 (8d0f1dd)
C            3.33021053990513        1.15776253564466        0.08196037814076
N            2.33786953343671        0.12118274765784       -0.00482738197521
C            2.59048708278059       -1.25890947335438        0.04662588445332
N            1.37712793814284       -1.90181830120001        0.01699918241730
C            0.39153486472043       -1.00813108621618       -0.02885512065087
C            0.93000967381929        0.27858312615774       -0.03173089612975
C            0.08343761702344        1.39522423418997       -0.05074476724134
O            0.35514900257571        2.59387334802005       -0.05278599458969
N           -1.34082886143967        1.01964614711975       -0.05504534828154
C           -2.26819396375926        2.12681700323535       -0.00170195357883
C           -1.86816240078397       -0.22179279671854       -0.09442282405262
O           -3.05836953511322       -0.46457011674603       -0.13367706018070
N           -0.94415699569205       -1.27126555890273       -0.06708507448777
C           -1.43220165328453       -2.62495922405286       -0.05881847374638
H            3.76782006776171        1.24248828190708        1.08690949987621
H            4.15880813974969        0.97993689856525       -0.61651594934282
H            2.86324491802200        2.11476610628432       -0.16515587848075
H            3.53948248650105       -1.74281646228291        0.06202680975340
H           -1.63064046715547        3.00513729125969        0.05032439373491
H           -2.90034694769573        2.15287844545867       -0.89086426878410
H           -2.90433393978951        2.05648787353692        0.88092300693160
H           -1.16946763741512       -3.12315737728134        0.87943135832073
H           -1.03579526525062       -3.18731178911158       -0.90965947529904
H           -2.51817264092147       -2.54839242311820       -0.14222877878588
H            1.25770311179827       -2.90263082788054        0.02595262812637
25
 energy: 3.557911762860 xtb: 6.6.1 (8d0f1dd)
C            3.41032174182239        1.12381656204254        0.07268403041840
N            2.35883841623864        0.13148219792119       -0.05302255339708
C            2.56228297183125       -1.26525937815414        0.06697282850572
N            1.33986130999934       -1.86136009131851        0.03792300846394
C            0.37905287207864       -0.95999132067876       -0.05396736072848
C            0.93448089379334        0.32991501900495       -0.08625694785209
C            0.06006621407766        1.41843803720556       -0.10520445617811
O            0.22053375540780        2.62959296215292       -0.11184003783552
N           -1.40794975532193        1.00607787486687       -0.08464936330976
C           -2.31731308881041        2.11981391748006        0.05655797479655
C           -1.90823097865201       -0.24009982855505       -0.14998683240205
O           -3.08524112099018       -0.53793900568247       -0.20876303139197
N           -0.94550682183665       -1.24541375929030       -0.10468290238196
C           -1.38409780785261       -2.61731497078565       -0.05771586060961
H            3.78503967868871        1.23907899282660        1.10883616593567
H            4.30632028402164        0.88196840433228       -0.54720453532572
H            3.03931658376339        2.11845170283816       -0.26050671596950
H            3.48770293267940       -1.80384378646669        0.08405054863635
H           -1.63551800273880        2.96386737096898        0.14213478025879
H           -2.98276459689191        2.22416077160785       -0.81154600532882
H           -2.92619780161540        2.02679456215778        0.95820937709256
H           -1.17432496148120       -3.04887909161084        0.93702782687295
H           -0.90725087817978       -3.21618272612147       -0.85337460703012
H           -2.47091076279692       -2.56705930749512       -0.22538858311386
H            1.17370359070190       -2.86108650707477        0.07674714802108
25
 energy: 5.063593064567 xtb: 6.6.1 (8d0f1dd)
C            3.40442296292759        1.11249321026482        0.06964147388377
N            2.36121218298193        0.11341257226344       -0.07097964475093
C            2.54372002819358       -1.25077846710097        0.07487638410583
N            1.35303788918152       -1.85333083912658        0.04745008536597
C            0.37134470152097       -0.95564506197146       -0.05823375165132
C            0.94507614628957        0.33027424401617       -0.09498609684368
C            0.06842481110768        1.43989363064398       -0.11212918469390
O            0.20533943368437        2.62876241042042       -0.13195721585786
N           -1.41056964227794        1.01186679916261       -0.08577942953058
C           -2.31255174878521        2.13311883607265        0.06972456441757
C           -1.91610226143348       -0.24690780734509       -0.15474185626736
O           -3.08148443744447       -0.55579421714186       -0.23238961201644
N           -0.93577125830428       -1.24782056787690       -0.11205270094223
C           -1.37092220122595       -2.62730998160649       -0.05697021894174
H            3.75219039008764        1.23426628779104        1.11383512819726
H            4.30657087722674        0.86674061703496       -0.53386315465633
H            3.04046724842674        2.10170271084153       -0.27729613108780
H            3.46749571477470       -1.79948549913148        0.07604219666736
H           -1.63940426764250        2.97637901352332        0.16086535686582
H           -2.97771674989729        2.25626281949525       -0.79301307254656
H           -2.91789061839655        2.03466029170544        0.97206707658664
H           -1.18461921370158       -3.04509471140610        0.94703778019634
H           -0.88398386441888       -3.22910490485727       -0.83798835050160
H           -2.45542904538550       -2.58639259316971       -0.24356787376531
H            1.17935759044693       -2.85314019032974        0.09144214391446
25
 energy: 4.746758205030 xtb: 6.6.1 (8d0f1dd)
C            3.42290508409413        1.10999169715621        0.06957978271843
N            2.36733605612333        0.12449272491606       -0.06937102535347
C            2.55232444864771       -1.25816761412284        0.07883585672162
N            1.33845757685189       -1.84933597627284        0.05248447389165
C            0.37419231336528       -0.94710564397429       -0.05888873615158
C            0.94254697466772        0.34010224254113       -0.09921993588759
C            0.06632920988231        1.43325141158661       -0.12235324925481
O            0.20006433246831        2.63640629310198       -0.14557667848814
N           -1.42034092300369        1.00729363161465       -0.09159118025495
C           -2.32609264930348        2.12087155006716        0.07529479918375
C           -1.91896365354774       -0.24335249885745       -0.16453523759639
O           -3.08767640135521       -0.55647933906468       -0.23931041176878
N           -0.94208341288251       -1.24010644172783       -0.11538816644478
C           -1.37040461521619       -2.61640975512597       -0.05778205147066
H            3.77782074785126        1.23324931358852        1.10760222930190
H            4.31885966460313        0.85825112627446       -0.53237500176568
H            3.06811635167388        2.09711585174746       -0.27303087494766
H            3.47082818009647       -1.80899502972908        0.08455354350750
H           -1.65049000792871        2.96265029193451        0.17307316519835
H           -2.99150163967837        2.24871837790181       -0.78489400014364
H           -2.93023921484345        2.01479668126333        0.97734597361306
H           -1.17858209799803       -3.03413476243466        0.94019310975114
H           -0.88019143310103       -3.21693349731954       -0.83487209070593
H           -2.45112320142401       -2.58110920820966       -0.24223621708425
H            1.16012297789335       -2.84603282468309        0.09949581957824
25
 energy: 7.818620054916 xtb: 6.6.1 (8d0f1dd)
C            3.45184446178893        1.09600896110367        0.06592237110130
N            2.37724421863329        0.13014900109554       -0.08212600064275
C            2.54935201508465       -1.25925535875894        0.09478430176263
N            1.32231041847102       -1.83441720466637        0.07114881100455
C            0.37211382375644       -0.92771093031822       -0.06389981129809
C            0.94451230890536        0.35901578916291       -0.11670063876051
C            0.06699928691847        1.44037776135025       -0.15106958098493
O            0.17218908313085        2.64945591992393       -0.19216014878577
N           -1.44261273689570        1.00377267128396       -0.10497375625351
C           -2.34769941566077        2.10990757806312        0.10062411516434
C           -1.93147105551424       -0.24300060647987       -0.18985224841100
O           -3.09644649543754       -0.57388367341657       -0.27375398491060
N           -0.94506007512622       -1.22756329258684       -0.12978536186657
C           -1.35677758075001       -2.60586390547400       -0.06003385196268
H            3.79284446437478        1.22820969283392        1.10587910713640
H            4.35368513960943        0.81889303035595       -0.51358430727499
H            3.12764123445320        2.08498826819525       -0.29532714074338
H            3.45836309732069       -1.82355559345689        0.09338510037970
H           -1.66871258272231        2.94668326119576        0.22205006930228
H           -3.01765946029571        2.26803351704953       -0.75114645369919
H           -2.94581795817681        1.97870703918961        1.00407477119294
H           -1.17859502165944       -3.00518165860589        0.94624292823920
H           -0.84307724050315       -3.21163862124765       -0.81678619734069
H           -2.43235446539999       -2.58615915596795       -0.26532121260025
H            1.12939920363111       -2.82694388765225        0.12944301639890
25
 energy: 9.838809146701 xtb: 6.6.1 (8d0f1dd)
C            3.47052632142639        1.07832046146773        0.05916440203754
N            2.38639434061430        0.13586149726691       -0.08711557889380
C            2.55716964251572       -1.25045967249860        0.13573317210148
N            1.30702505483485       -1.82017642287513        0.11834330428258
C            0.37342387527440       -0.90785917425481       -0.05902014555917
C            0.94648240520600        0.37419643258251       -0.13023221168699
C            0.08914124020596        1.45101699447558       -0.20339153151451
O            0.18958944928004        2.66369924044356       -0.30528004808311
N           -1.45732570015023        1.00545602097639       -0.12317962372648
C           -2.36958972499590        2.08558332013780        0.14088032675974
C           -1.93932241836183       -0.22833620542534       -0.22714884180391
O           -3.10103096717432       -0.56994651436910       -0.32803926291051
N           -0.95100772390334       -1.21223400184387       -0.14834187695129
C           -1.35116058784574       -2.58445049175225       -0.07016482045243
H            3.80504831740500        1.21626764287891        1.08870362166833
H            4.34738054374175        0.75965017973072       -0.50291872360407
H            3.17148899316268        2.04708937613551       -0.30965424717086
H            3.45865626827138       -1.81151931142155        0.09853022128557
H           -1.71453964857406        2.93411904736907        0.32041955391759
H           -3.02871348110984        2.28719622862379       -0.70065873508467
H           -2.97284991800919        1.88395947780799        1.03078671925893
H           -1.18305720435390       -2.97209734663028        0.92772118835321
H           -0.81913602043891       -3.18231198659965       -0.80283952117105
H           -2.41169794246256       -2.59235811106229       -0.28517078226346
H            1.10931955337768       -2.80163807899169        0.18990733735872
25
 energy: 14.945628887956 xtb: 6.6.1 (8d0f1dd)
C            3.50079741962937        1.05466423293974        0.04782735455661
N            2.39278634090046        0.14054213458986       -0.10721148996048
C            2.54855264567276       -1.23954634534957        0.18202180525746
N            1.28925426013013       -1.79806085184065        0.16568084404703
C            0.36835262108995       -0.88200501287371       -0.06301322518583
C            0.94770786201064        0.39742483929002       -0.15982883981575
C            0.09953288536354        1.47173143080149       -0.26784723135008
O            0.16195494622225        2.68474253128062       -0.41579137482803
N           -1.48574654445713        1.00620555188041       -0.14860597605224
C           -2.39480334164398        2.06996196120727        0.19823361905054
C           -1.95666832916189       -0.22333885300307       -0.27758136649507
O           -3.11104708685247       -0.58803860611750       -0.39821749068512
N           -0.95344198927711       -1.19600991472567       -0.17845428469275
C           -1.33158050273643       -2.57204193033672       -0.07974245800486
H            3.79673863218163        1.21472680066172        1.08927570852514
H            4.39310174070368        0.66820296113685       -0.46529091107933
H            3.25886947042404        2.02676608061552       -0.37938466091587
H            3.44190529312473       -1.81304751050300        0.10194919675422
H           -1.74522574205486        2.91474668098548        0.44467798392932
H           -3.05891585572546        2.34245458107908       -0.62854489343909
H           -2.99506762745274        1.79685497545481        1.07918016221401
H           -1.19970343308021       -2.92253708231962        0.94338814463678
H           -0.74819630801920       -3.18302406286348       -0.77176078358375
H           -2.38454824467677       -2.60834181683908       -0.34457868354653
H            1.07760555562149       -2.77400417297891        0.26065274681106
25
 energy: 12.837835475065 xtb: 6.6.1 (8d0f1dd)
C            3.47025283519931        1.04517285209031        0.03328669118524
N            2.36463344187732        0.13792935380417       -0.10433364505309
C            2.54044570405543       -1.20098055844962        0.24429772842944
N            1.30073228701826       -1.79806378826777        0.21188909978495
C            0.36330652418479       -0.88896780149198       -0.05597761386871
C            0.93759802977914        0.38365986823898       -0.16809312905630
C            0.12099237194117        1.49688068081296       -0.32781729513111
O            0.21975932702425        2.68823711676382       -0.51054431689065
N           -1.46888033126461        1.02674285575692       -0.16260588739437
C           -2.38041653517297        2.06402235790692        0.24819816862734
C           -1.95079329281996       -0.20371665975911       -0.31285895512524
O           -3.10544091513054       -0.55217277931262       -0.44498450360506
N           -0.95106600968471       -1.20068231787206       -0.20397580017190
C           -1.33615786928025       -2.57751837669366       -0.09596557134747
H            3.72455877157010        1.22627630045504        1.09479983729407
H            4.37203457183648        0.57231025738328       -0.43767530906296
H            3.26742335821759        2.01665644694549       -0.47345154381786
H            3.45120471861600       -1.74984366832899        0.07065124917526
H           -1.76830975886487        2.91965166891353        0.57115734651594
H           -3.04292340728359        2.39324920986120       -0.56468512052230
H           -2.99574672307621        1.70367791967917        1.09353758306406
H           -1.24062985305869       -2.90320207207218        0.95845585401081
H           -0.70817406313592       -3.20208519234747       -0.75816429919086
H           -2.38692093424929       -2.63242016518969       -0.40757953692132
H            1.11473241963820       -2.77578490665475        0.32947286521954
25
 energy: 12.261633288973 xtb: 6.6.1 (8d0f1dd)
C            3.45994278688780        1.03255772246038        0.01563156457179
N            2.34140860178951        0.13964745021667       -0.10703522090603
C            2.52882548806801       -1.17152827971234        0.30304363979790
N            1.30593107622708       -1.79482726470894        0.25071145482642
C            0.35744961938638       -0.89187491442870       -0.05297500261240
C            0.92987608018108        0.37682617753471       -0.18385367655063
C            0.12475860950268        1.51145449899229       -0.37520248130435
O            0.25363118951218        2.69011916158113       -0.60537710870972
N           -1.44841634339824        1.04293784026949       -0.18190012419584
C           -2.36943720690620        2.05611364439794        0.29326562092962
C           -1.94163030295118       -0.18914201920975       -0.34386960219030
O           -3.09921615792414       -0.51965985716937       -0.49549362761503
N           -0.94625770291599       -1.20285649033018       -0.22941493001348
C           -1.33814324499368       -2.58036077351727       -0.11101748135137
H            3.69196350786702        1.23868688730868        1.07886502566817
H            4.35088758664168        0.52793445319447       -0.42622461853961
H            3.28089717634135        1.98498859229213       -0.51887239610669
H            3.44620460372069       -1.70253759875929        0.06882181924255
H           -1.78567582141952        2.90755770859066        0.68109832266586
H           -3.03697038939644        2.43520436715565       -0.50118962913567
H           -2.99095128216324        1.62884378380887        1.10630144776603
H           -1.26907916392097       -2.89672256266792        0.94977342832221
H           -0.69301387899654       -3.21190840824444       -0.74746244053570
H           -2.37983297485326       -2.64580476988218       -0.45053956377500
H            1.13906281165042       -2.77662074700091        0.40994947589869
25
 energy: 8.511507232982 xtb: 6.6.1 (8d0f1dd)
C            3.44026094070791        1.03019428307630       -0.00937416305754
N            2.30138548031991        0.14916465746943       -0.10104298908635
C            2.50982473840149       -1.13410155248286        0.36304012448106
N            1.31485210119670       -1.79374926116484        0.26628060836098
C            0.34838874881235       -0.90566410930684       -0.04972724945993
C            0.91480070141134        0.36050991493330       -0.20178085900153
C            0.09379585895669        1.50903256464058       -0.39212557889060
O            0.29941878947915        2.66505939203201       -0.66580970602253
N           -1.39971544947340        1.06895651542106       -0.18996145505304
C           -2.34074845215386        2.04928731406317        0.32869017980879
C           -1.91472570483041       -0.17273941303582       -0.35711458949364
O           -3.08167415527429       -0.45832627038749       -0.52395265177271
N           -0.93791874963082       -1.21256947838584       -0.25495387300914
C           -1.35125026163086       -2.59013796023004       -0.13241382564777
H            3.66306894751603        1.26836023242046        1.04553755036584
H            4.31473097993670        0.51145846496097       -0.42349528751374
H            3.28096125724011        1.95701344918060       -0.56242705368073
H            3.43027733166307       -1.64120819851774        0.09596436807314
H           -1.78553285386594        2.87383156706830        0.76021604940577
H           -3.01582200419983        2.44279580730735       -0.43537574713988
H           -2.96286258230147        1.58242278894991        1.09481879183679
H           -1.30108423527138       -2.91131165241605        0.92112840582409
H           -0.70834110203874       -3.22707419836006       -0.74883232965376
H           -2.38145762832641       -2.65171142349531       -0.48688282295005
H            1.18158197129244       -2.78046483156875        0.48662799942394
25