      -----------------------------------------------------------      
     |                   =====================                   |     
     |                           x T B                           |     
     |                   =====================                   |     
     |                         S. Grimme                         |     
     |          Mulliken Center for Theoretical Chemistry        |     
     |                    University of Bonn                     |     
      -----------------------------------------------------------      

   * xtb version 6.6.1 (8d0f1dd) compiled by 'conda@1efc2f54142f' on 2023-08-01

   xtb is free software: you can redistribute it and/or modify it under
   the terms of the GNU Lesser General Public License as published by
   the Free Software Foundation, either version 3 of the License, or
   (at your option) any later version.
   
   xtb is distributed in the hope that it will be useful,
   but WITHOUT ANY WARRANTY; without even the implied warranty of
   MERCHANTABILITY or FITNESS FOR A PARTICULAR PURPOSE.  See the
   GNU Lesser General Public License for more details.
   
   Cite this work as:
   * C. Bannwarth, E. Caldeweyher, S. Ehlert, A. Hansen, P. Pracht,
     J. Seibert, S. Spicher, S. Grimme, WIREs Comput. Mol. Sci., 2020, 11,
     e01493. DOI: 10.1002/wcms.1493
   
   for GFN2-xTB:
   * C. Bannwarth, S. Ehlert and S. Grimme., J. Chem. Theory Comput., 2019,
     15, 1652-1671. DOI: 10.1021/acs.jctc.8b01176
   for GFN1-xTB:
   * S. Grimme, C. Bannwarth, P. Shushkov, J. Chem. Theory Comput., 2017,
     13, 1989-2009. DOI: 10.1021/acs.jctc.7b00118
   for GFN0-xTB:
   * P. Pracht, E. Caldeweyher, S. Ehlert, S. Grimme, ChemRxiv, 2019, preprint.
     DOI: 10.26434/chemrxiv.8326202.v1
   for GFN-FF:
   * S. Spicher and S. Grimme, Angew. Chem. Int. Ed., 2020, 59, 15665-15673.
     DOI: 10.1002/anie.202004239
   
   for ALPB and GBSA implicit solvation:
   * S. Ehlert, M. Stahn, S. Spicher, S. Grimme, J. Chem. Theory Comput.,
     2021, 17, 4250-4261. DOI: 10.1021/acs.jctc.1c00471
   
   for DFT-D4:
   * E. Caldeweyher, C. Bannwarth and S. Grimme, J. Chem. Phys., 2017,
     147, 034112. DOI: 10.1063/1.4993215
   * E. Caldeweyher, S. Ehlert, A. Hansen, H. Neugebauer, S. Spicher,
     C. Bannwarth and S. Grimme, J. Chem. Phys., 2019, 150, 154122.
     DOI: 10.1063/1.5090222
   * E. Caldeweyher, J.-M. Mewes, S. Ehlert and S. Grimme, Phys. Chem. Chem. Phys.
     2020, 22, 8499-8512. DOI: 10.1039/D0CP00502A
   
   for sTDA-xTB:
   * S. Grimme and C. Bannwarth, J. Chem. Phys., 2016, 145, 054103.
     DOI: 10.1063/1.4959605
   
   in the mass-spec context:
   * V. Asgeirsson, C. Bauer and S. Grimme, Chem. Sci., 2017, 8, 4879.
     DOI: 10.1039/c7sc00601b
   * J. Koopman and S. Grimme, ACS Omega 2019, 4, 12, 15120-15133.
     DOI: 10.1021/acsomega.9b02011
   
   for metadynamics refer to:
   * S. Grimme, J. Chem. Theory Comput., 2019, 155, 2847-2862
     DOI: 10.1021/acs.jctc.9b00143
   
   for SPH calculations refer to:
   * S. Spicher and S. Grimme, J. Chem. Theory Comput., 2021, 17, 1701-1714
     DOI: 10.1021/acs.jctc.0c01306
   
   with help from (in alphabetical order)
   P. Atkinson, C. Bannwarth, F. Bohle, G. Brandenburg, E. Caldeweyher
   M. Checinski, S. Dohm, S. Ehlert, S. Ehrlich, I. Gerasimov, C. Hölzer
   A. Katbashev, J. Koopman, C. Lavigne, S. Lehtola, F. März, M. Müller,
   F. Musil, H. Neugebauer, J. Pisarek, C. Plett, P. Pracht, F. Pultar,
   J. Seibert, P. Shushkov, S. Spicher, M. Stahn, M. Steiner, T. Strunk,
   J. Stückrath, T. Rose, and J. Unsleber
   
 * started run on 2024/06/05 at 19:57:55.356     

           -------------------------------------------------
          |                Calculation Setup                |
           -------------------------------------------------

          program call               : xtb xtbopt.xyz --opt crude --input .xc2 --gfn2
          hostname                   : n-62-21-70
          coordinate file            : xtbopt.xyz
          omp threads                :                     1

   ID    Z sym.   atoms
    1    6 C      1, 3, 5-7, 10, 11, 14
    2    7 N      2, 4, 9, 13
    3    8 O      8, 12
    4    1 H      15-25
########################################################################
[WARNING] Please study the warnings concerning your input carefully
-1- readin_getIntValue: could not parse ''
########################################################################

           -------------------------------------------------
          |                 G F N 2 - x T B                 |
           -------------------------------------------------

        Reference                      10.1021/acs.jctc.8b01176
      * Hamiltonian:
        H0-scaling (s, p, d)           1.850000    2.230000    2.230000
        zeta-weighting                 0.500000
      * Dispersion:
        s8                             2.700000
        a1                             0.520000
        a2                             5.000000
        s9                             5.000000
      * Repulsion:
        kExp                           1.500000    1.000000
        rExp                           1.000000
      * Coulomb:
        alpha                          2.000000
        third order                    shell-resolved
        anisotropic                    true
        a3                             3.000000
        a5                             4.000000
        cn-shift                       1.200000
        cn-exp                         4.000000
        max-rad                        5.000000

q/qsh data taken from xtbrestart
CAMM data taken from xtbrestart

          ...................................................
          :                      SETUP                      :
          :.................................................:
          :  # basis functions                  67          :
          :  # atomic orbitals                  67          :
          :  # shells                           39          :
          :  # electrons                        74          :
          :  max. iterations                   250          :
          :  Hamiltonian                  GFN2-xTB          :
          :  restarted?                       true          :
          :  GBSA solvation                  false          :
          :  PC potential                    false          :
          :  electronic temp.         5000.0000000     K    :
          :  accuracy                    1.0000000          :
          :  -> integral cutoff          0.2500000E+02      :
          :  -> integral neglect         0.1000000E-07      :
          :  -> SCF convergence          0.1000000E-05 Eh   :
          :  -> wf. convergence          0.1000000E-03 e    :
          :  Broyden damping             0.4000000          :
          ...................................................

 iter      E             dE          RMSdq      gap      omega  full diag
   1    -42.5955379 -0.425955E+02  0.193E-05    0.17       0.0  T
   2    -42.5955379  0.107647E-10  0.228E-05    0.17     878.1  T
   3    -42.5955379 -0.655831E-11  0.172E-05    0.17    1160.2  T

   *** convergence criteria satisfied after 3 iterations ***

         #    Occupation            Energy/Eh            Energy/eV
      -------------------------------------------------------------
         1        2.0000           -0.8961694             -24.3860
       ...           ...                  ...                  ...
        31        1.9970           -0.6203741             -16.8812
        32        1.9943           -0.6103114             -16.6074
        33        1.9910           -0.6031130             -16.4115
        34        1.9836           -0.5936108             -16.1530
        35        1.9671           -0.5824255             -15.8486
        36        1.7360           -0.5474665             -14.8973
        37        1.2468           -0.5256287             -14.3031 (HOMO)
        38        1.0502           -0.5192377             -14.1292 (LUMO)
        39        0.0364           -0.4544952             -12.3674
        40        0.0015           -0.4042089             -10.9991
        41        0.0005           -0.3853314             -10.4854
        42        0.0000           -0.3021126              -8.2209
       ...           ...                  ...                  ...
        67                          0.5381033              14.6425
      -------------------------------------------------------------
                  HL-Gap            0.0063910 Eh            0.1739 eV
             Fermi-level           -0.5176471 Eh          -14.0859 eV

 SCC (total)                   0 d,  0 h,  0 min,  0.026 sec
 SCC setup                      ...        0 min,  0.000 sec (  1.150%)
 Dispersion                     ...        0 min,  0.000 sec (  1.462%)
 classical contributions        ...        0 min,  0.000 sec (  0.403%)
 integral evaluation            ...        0 min,  0.007 sec ( 25.501%)
 iterations                     ...        0 min,  0.006 sec ( 21.396%)
 molecular gradient             ...        0 min,  0.013 sec ( 49.381%)
 printout                       ...        0 min,  0.000 sec (  0.653%)

         :::::::::::::::::::::::::::::::::::::::::::::::::::::
         ::                     SUMMARY                     ::
         :::::::::::::::::::::::::::::::::::::::::::::::::::::
         :: total energy             -42.088013072815 Eh    ::
         :: gradient norm              0.017254545765 Eh/a0 ::
         :: HOMO-LUMO gap              0.173908034828 eV    ::
         ::.................................................::
         :: SCC energy               -42.595537935800 Eh    ::
         :: -> isotropic ES            0.134039430433 Eh    ::
         :: -> anisotropic ES         -0.009716727977 Eh    ::
         :: -> anisotropic XC          0.017664965761 Eh    ::
         :: -> dispersion             -0.022098032509 Eh    ::
         :: repulsion energy           0.507396032285 Eh    ::
         :: add. restraining           0.000000000000 Eh    ::
         :: total charge               1.000000000021 e     ::
         :::::::::::::::::::::::::::::::::::::::::::::::::::::

      ----------------------------------------------------------- 
     |                   =====================                   |
     |                        A N C O P T                        |
     |                   =====================                   |
     |               Approximate Normal Coordinate               |
     |                Rational Function Optimizer                |
      ----------------------------------------------------------- 

          ...................................................
          :                      SETUP                      :
          :.................................................:
          :   optimization level             crude          :
          :   max. optcycles                   200          :
          :   ANC micro-cycles                  20          :
          :   degrees of freedom                69          :
          :.................................................:
          :   RF solver                   davidson          :
          :   write xtbopt.log                true          :
          :   linear?                        false          :
          :   energy convergence         0.5000000E-03 Eh   :
          :   grad. convergence          0.1000000E-01 Eh/α :
          :   maxmium RF displ.          1.0000000          :
          :   Hlow (freq-cutoff)         0.1000000E-01      :
          :   Hmax (freq-cutoff)         5.0000000          :
          :   S6 in model hess.         20.0000000          :
          ...................................................

generating ANC from model Hessian ...
Using Lindh-Hessian (1995)
 Shifting diagonal of input Hessian by    8.4540322895432125E-003
 Lowest  eigenvalues of input Hessian
    0.000000    0.000000    0.000000    0.000000    0.000000    0.000000
    0.010000    0.012575    0.013067    0.013836    0.014548    0.015013
    0.017973    0.018428    0.020689    0.023173    0.026863    0.037359
 Highest eigenvalues
    1.904017    2.051806    2.159950    2.252704    2.364402    2.538955


........................................................................
.............................. CYCLE    1 ..............................
........................................................................

 iter      E             dE          RMSdq      gap      omega  full diag
   1    -42.5955379 -0.425955E+02  0.616E-06    0.17       0.0  T
   2    -42.5955379  0.344613E-11  0.101E-05    0.17    1975.7  T
   3    -42.5955379 -0.376588E-11  0.384E-06    0.17    5207.3  T
     SCC iter.                  ...        0 min,  0.005 sec
     gradient                   ...        0 min,  0.013 sec
 * total energy  :   -42.0880131 Eh     change       -0.1035261E-10 Eh
   gradient norm :     0.0172544 Eh/α   predicted     0.0000000E+00 (-100.00%)
   displ. norm   :     0.3767888 α      lambda       -0.3923370E-02
   maximum displ.:     0.2948818 α      in ANC's #6, #7, #12, ...

........................................................................
.............................. CYCLE    2 ..............................
........................................................................

 iter      E             dE          RMSdq      gap      omega  full diag
   1    -42.6027254 -0.426027E+02  0.147E-01    0.10       0.0  T
   2    -42.6012211  0.150426E-02  0.206E-01    0.12       1.0  T
   3    -42.6025318 -0.131076E-02  0.118E-01    0.09       1.0  T
   4    -42.6028955 -0.363648E-03  0.297E-02    0.11       1.0  T
   5    -42.6029232 -0.276741E-04  0.945E-03    0.10       2.1  T
   6    -42.6029250 -0.186335E-05  0.445E-03    0.11       4.5  T
   7    -42.6029255 -0.490673E-06  0.144E-03    0.11      13.9  T
   8    -42.6029255 -0.213990E-07  0.329E-04    0.11      60.9  T
   9    -42.6029255 -0.148928E-08  0.143E-04    0.11     139.6  T
     SCC iter.                  ...        0 min,  0.013 sec
     gradient                   ...        0 min,  0.013 sec
 * total energy  :   -42.0912708 Eh     change       -0.3257721E-02 Eh
   gradient norm :     0.0112976 Eh/α   predicted    -0.2240188E-02 ( -31.23%)
   displ. norm   :     0.5976712 α      lambda       -0.4105622E-02
   maximum displ.:     0.4718602 α      in ANC's #6, #7, #12, ...

........................................................................
.............................. CYCLE    3 ..............................
........................................................................

 iter      E             dE          RMSdq      gap      omega  full diag
   1    -42.6062502 -0.426063E+02  0.245E-01    0.08       0.0  T
   2    -42.6003632  0.588704E-02  0.393E-01    0.04       1.0  T
   3    -42.6061866 -0.582348E-02  0.182E-01    0.08       1.0  T
   4    -42.6069825 -0.795910E-03  0.444E-02    0.05       1.0  T
   5    -42.6070528 -0.702078E-04  0.142E-02    0.06       1.4  T
   6    -42.6070566 -0.388479E-05  0.633E-03    0.06       3.2  T
   7    -42.6070572 -0.586540E-06  0.273E-03    0.06       7.3  T
   8    -42.6070573 -0.955988E-07  0.646E-04    0.06      31.0  T
   9    -42.6070573 -0.285544E-08  0.292E-04    0.06      68.4  T
     SCC iter.                  ...        0 min,  0.013 sec
     gradient                   ...        0 min,  0.013 sec
 * total energy  :   -42.0939619 Eh     change       -0.2691115E-02 Eh
   gradient norm :     0.0133807 Eh/α   predicted    -0.2786098E-02 (   3.53%)
   displ. norm   :     0.2588748 α      lambda       -0.7245546E-03
   maximum displ.:     0.2128689 α      in ANC's #6, #7, #9, ...

........................................................................
.............................. CYCLE    4 ..............................
........................................................................

 iter      E             dE          RMSdq      gap      omega  full diag
   1    -42.6079599 -0.426080E+02  0.127E-01    0.15       0.0  T
   2    -42.6064256  0.153429E-02  0.200E-01    0.11       1.0  T
   3    -42.6079534 -0.152779E-02  0.945E-02    0.15       1.0  T
   4    -42.6081727 -0.219322E-03  0.236E-02    0.13       1.0  T
   5    -42.6081901 -0.174413E-04  0.475E-03    0.13       4.2  T
   6    -42.6081903 -0.197109E-06  0.249E-03    0.13       8.0  T
   7    -42.6081904 -0.307214E-07  0.647E-04    0.13      30.9  T
   8    -42.6081904 -0.455861E-08  0.262E-04    0.13      76.3  T
     SCC iter.                  ...        0 min,  0.011 sec
     gradient                   ...        0 min,  0.013 sec
 * total energy  :   -42.0943815 Eh     change       -0.4196130E-03 Eh
   gradient norm :     0.0095031 Eh/α   predicted    -0.3866825E-03 (  -7.85%)
   displ. norm   :     0.0612329 α      lambda       -0.2096803E-03
   maximum displ.:     0.0373159 α      in ANC's #6, #20, #13, ...

   *** GEOMETRY OPTIMIZATION CONVERGED AFTER 4 ITERATIONS ***

------------------------------------------------------------------------
 total energy gain   :        -0.0063684 Eh       -3.9963 kcal/mol
 total RMSD          :         0.2446766 a0        0.1295 Å
 total power (kW/mol):        -4.1800900 (step) -133.5004 (real)
------------------------------------------------------------------------

 ANCopt (total)                0 d,  0 h,  0 min,  0.125 sec
 optimizer setup                ...        0 min,  0.000 sec (  0.265%)
 model hessian                  ...        0 min,  0.006 sec (  4.921%)
 ANC generation                 ...        0 min,  0.001 sec (  0.760%)
 coordinate transformation      ...        0 min,  0.000 sec (  0.032%)
 single point calculation       ...        0 min,  0.116 sec ( 92.262%)
 optimization log               ...        0 min,  0.002 sec (  1.211%)
 hessian update                 ...        0 min,  0.000 sec (  0.035%)
 rational function              ...        0 min,  0.000 sec (  0.255%)

================
 final structure:
================
25
 xtb: 6.6.1 (8d0f1dd)
C            3.15225389641884        1.41586737761266        0.01903934622126
N            2.34792897675550        0.27680185561074       -0.00503522750822
C            2.58015349786376       -2.30253218293187       -0.01437347808178
N            1.29651010335251       -2.22787803694822       -0.01006675844605
C            0.46950763157483       -1.10917216047555       -0.00472209388711
C            1.06120728184614        0.17005801701020        0.00213463360970
C            0.13370586853288        1.35619204938216        0.00656533539309
O            0.54517807978565        2.49252201350131        0.01563806242803
N           -1.20092872633214        1.05311046263485       -0.00635906351418
C           -2.16183631922128        2.15111035790464       -0.00919791600508
C           -1.76661963866134       -0.20839277742878       -0.00655675790493
O           -2.95448028154007       -0.37773658800428       -0.00884887615549
N           -0.87430775335201       -1.29067047631885       -0.00329354573335
C           -1.46784277191703       -2.61600585722621        0.00298938760191
H            3.71066423817480        1.44963736120340        0.96069115689981
H            3.88275252833729        1.36247156678706       -0.79353912801740
H            2.55495071311637        2.33076830139354       -0.07521033591026
H            3.21631163461811       -1.42053114348024       -0.00919536708084
H           -1.61683771810872        3.09130270673106       -0.00265216393793
H           -2.78961321240678        2.08231830553194       -0.89734602709876
H           -2.80159534528874        2.07713556276690        0.86996758071613
H           -1.18868339871411       -3.16772030943393        0.90233044069943
H           -1.19986511644501       -3.17227508701598       -0.89704193253875
H           -2.55074702874504       -2.47996776311690        0.00884836041645
H            0.78266437445565       -3.11817501408972       -0.01359401426572

 Bond Distances (Angstroems)
 ---------------------------
C1-N2=1.3946         C1-H15=1.0953        C1-H16=1.0940        C1-H17=1.0967        N2-C1=1.3946         N2-C6=1.2912         
C3-N4=1.2858         C3-H18=1.0875        N4-C3=1.2858         N4-C5=1.3912         N4-H25=1.0279        C5-N4=1.3912         
C5-C6=1.4095         C5-N13=1.3560        C6-N2=1.2912         C6-C5=1.4095         C6-C7=1.5057         C7-C6=1.5057         
C7-O8=1.2086         C7-N9=1.3687         O8-C7=1.2086         N9-C7=1.3687         N9-C10=1.4591        N9-C11=1.3825        
C10-N9=1.4591        C10-H19=1.0868       C10-H20=1.0898       C10-H21=1.0898       C11-N9=1.3825        C11-O12=1.1999       
C11-N13=1.4027       O12-C11=1.1999       N13-C5=1.3560        N13-C11=1.4027       N13-C14=1.4522       C14-N13=1.4522       
C14-H22=1.0914       C14-H23=1.0915       C14-H24=1.0914       H15-C1=1.0953        H16-C1=1.0940        H17-C1=1.0967        
H18-C3=1.0875        H19-C10=1.0868       H20-C10=1.0898       H21-C10=1.0898       H22-C14=1.0914       H23-C14=1.0915       
H24-C14=1.0914       H25-N4=1.0279        
 C  H  Rav=1.0914 sigma=0.0030  Rmin=1.0868  Rmax=1.0967    10
 C  C  Rav=1.4576 sigma=0.0481  Rmin=1.4095  Rmax=1.5057     2
 N  H  Rav=1.0279 sigma=0.0000  Rmin=1.0279  Rmax=1.0279     1
 N  C  Rav=1.3784 sigma=0.0546  Rmin=1.2858  Rmax=1.4591    10
 O  C  Rav=1.2042 sigma=0.0043  Rmin=1.1999  Rmax=1.2086     2

 selected bond angles (degree)
 --------------------
H15-C1-N2=109.52               H16-C1-N2=109.42               H16-C1-H15=107.44              H17-C1-N2=111.46               
H17-C1-H15=109.02              H17-C1-H16=109.91              C6-N2-C1=129.95                H18-C3-N4=122.47               
C5-N4-C3=129.80                H25-N4-C3=116.66               H25-N4-C5=113.53               C6-C5-N4=118.70                
N13-C5-N4=118.78               N13-C5-C6=122.51               C5-C6-N2=119.56                C7-C6-N2=123.28                
C7-C6-C5=117.15                O8-C7-C6=122.07                N9-C7-C6=115.23                N9-C7-O8=122.70                
C10-N9-C7=118.40               C11-N9-C7=126.95               C11-N9-C10=114.66              H19-C10-N9=108.71              
H20-C10-N9=109.48              H20-C10-H19=110.39             H21-C10-N9=109.51              H21-C10-H19=110.38             
H21-C10-H20=108.36             

 selected dihedral angles (degree)
 ---------------------------------
C6-N2-C1-H15=113.78           C6-N2-C1-H16=231.30           C6-N2-C1-H17=353.07           C5-N4-C3-H18=  0.32           
H25-N4-C3-H18=180.13          C6-C5-N4-C3=359.74            C6-C5-N4-H25=179.92           N13-C5-N4-C3=179.88           
N13-C5-N4-H25=  0.07          C5-C6-N2-C1=181.06            C7-C6-N2-C1=  1.56            N2-C6-C5-N4=  0.43            
N2-C6-C5-N13=180.27           C7-C6-C5-N4=179.95            C7-C6-C5-N13=359.80           O8-C7-C6-N2=359.33            
O8-C7-C6-C5=179.82            N9-C7-C6-N2=179.05            N9-C7-C6-C5=359.55            C10-N9-C7-C6=180.28           
C10-N9-C7-O8=  0.00           C11-N9-C7-C6=  0.84           C11-N9-C7-O8=180.56           H19-C10-N9-C7=  0.15          
H19-C10-N9-C11=179.66         H20-C10-N9-C7=120.81          H20-C10-N9-C11=300.32         H21-C10-N9-C7=239.48          
H21-C10-N9-C11= 58.99         
           -------------------------------------------------
          |                Final Singlepoint                |
           -------------------------------------------------

          ...................................................
          :                      SETUP                      :
          :.................................................:
          :  # basis functions                  67          :
          :  # atomic orbitals                  67          :
          :  # shells                           39          :
          :  # electrons                        74          :
          :  max. iterations                   250          :
          :  Hamiltonian                  GFN2-xTB          :
          :  restarted?                      false          :
          :  GBSA solvation                  false          :
          :  PC potential                    false          :
          :  electronic temp.         5000.0000000     K    :
          :  accuracy                    1.0000000          :
          :  -> integral cutoff          0.2500000E+02      :
          :  -> integral neglect         0.1000000E-07      :
          :  -> SCF convergence          0.1000000E-05 Eh   :
          :  -> wf. convergence          0.1000000E-03 e    :
          :  Broyden damping             0.4000000          :
          ...................................................

 iter      E             dE          RMSdq      gap      omega  full diag
   1    -42.6081904 -0.426082E+02  0.112E-04    0.13       0.0  T
   2    -42.6081904  0.107717E-08  0.177E-04    0.13     112.7  T
   3    -42.6081904 -0.115838E-08  0.783E-05    0.13     255.3  T

   *** convergence criteria satisfied after 3 iterations ***

         #    Occupation            Energy/Eh            Energy/eV
      -------------------------------------------------------------
         1        2.0000           -0.8955732             -24.3698
       ...           ...                  ...                  ...
        31        1.9970           -0.6197757             -16.8650
        32        1.9946           -0.6103139             -16.6075
        33        1.9920           -0.6040161             -16.4361
        34        1.9855           -0.5946150             -16.1803
        35        1.9671           -0.5814314             -15.8216
        36        1.8587           -0.5574689             -15.1695
        37        1.1571           -0.5216823             -14.1957 (HOMO)
        38        1.0047           -0.5168148             -14.0632 (LUMO)
        39        0.0449           -0.4568946             -12.4327
        40        0.0017           -0.4046138             -11.0101
        41        0.0005           -0.3858933             -10.5007
        42        0.0000           -0.3006035              -8.1798
       ...           ...                  ...                  ...
        67                          0.5395088              14.6808
      -------------------------------------------------------------
                  HL-Gap            0.0048675 Eh            0.1325 eV
             Fermi-level           -0.5166661 Eh          -14.0592 eV

 SCC (total)                   0 d,  0 h,  0 min,  0.023 sec
 SCC setup                      ...        0 min,  0.000 sec (  0.814%)
 Dispersion                     ...        0 min,  0.000 sec (  0.819%)
 classical contributions        ...        0 min,  0.000 sec (  0.303%)
 integral evaluation            ...        0 min,  0.005 sec ( 21.687%)
 iterations                     ...        0 min,  0.005 sec ( 20.402%)
 molecular gradient             ...        0 min,  0.013 sec ( 55.391%)
 printout                       ...        0 min,  0.000 sec (  0.530%)

         :::::::::::::::::::::::::::::::::::::::::::::::::::::
         ::                     SUMMARY                     ::
         :::::::::::::::::::::::::::::::::::::::::::::::::::::
         :: total energy             -42.094381521644 Eh    ::
         :: gradient norm              0.009501748313 Eh/a0 ::
         :: HOMO-LUMO gap              0.132450287207 eV    ::
         ::.................................................::
         :: SCC energy               -42.608190367130 Eh    ::
         :: -> isotropic ES            0.134281469287 Eh    ::
         :: -> anisotropic ES         -0.009896974644 Eh    ::
         :: -> anisotropic XC          0.016573818473 Eh    ::
         :: -> dispersion             -0.022355930069 Eh    ::
         :: repulsion energy           0.513678038868 Eh    ::
         :: add. restraining           0.000000000000 Eh    ::
         :: total charge               1.000000000000 e     ::
         :::::::::::::::::::::::::::::::::::::::::::::::::::::

           -------------------------------------------------
          |                Property Printout                |
           -------------------------------------------------

    * Orbital Energies and Occupations

         #    Occupation            Energy/Eh            Energy/eV
      -------------------------------------------------------------
         1        2.0000           -0.8955732             -24.3698
       ...           ...                  ...                  ...
        25        1.9999           -0.6782983             -18.4574
        26        1.9999           -0.6768132             -18.4170
        27        1.9995           -0.6469128             -17.6034
        28        1.9993           -0.6424048             -17.4807
        29        1.9991           -0.6391192             -17.3913
        30        1.9987           -0.6326320             -17.2148
        31        1.9970           -0.6197757             -16.8650
        32        1.9946           -0.6103139             -16.6075
        33        1.9920           -0.6040161             -16.4361
        34        1.9855           -0.5946150             -16.1803
        35        1.9671           -0.5814314             -15.8216
        36        1.8587           -0.5574689             -15.1695
        37        1.1571           -0.5216823             -14.1957 (HOMO)
        38        1.0047           -0.5168148             -14.0632 (LUMO)
        39        0.0449           -0.4568946             -12.4327
        40        0.0017           -0.4046138             -11.0101
        41        0.0005           -0.3858933             -10.5007
        42        0.0000           -0.3006035              -8.1798
        43                         -0.2085474              -5.6749
        44                         -0.1695742              -4.6143
        45                         -0.1484147              -4.0386
        46                         -0.1001726              -2.7258
        47                         -0.0824114              -2.2425
        48                         -0.0437138              -1.1895
       ...                                ...                  ...
        67                          0.5395088              14.6808
      -------------------------------------------------------------
                  HL-Gap            0.0048675 Eh            0.1325 eV
             Fermi-level           -0.5166661 Eh          -14.0592 eV

     #   Z          covCN         q      C6AA      α(0)
     1   6 C        3.691    -0.055    21.761     6.675
     2   7 N        1.838    -0.119    24.367     7.315
     3   6 C        1.847    -0.068    33.001     9.280
     4   7 N        2.688     0.011    21.060     6.816
     5   6 C        2.854     0.088    26.043     8.364
     6   6 C        2.892     0.049    26.904     8.504
     7   6 C        2.767     0.270    22.445     7.759
     8   8 O        0.858    -0.325    20.243     6.032
     9   7 N        2.738    -0.067    22.536     7.051
    10   6 C        3.710    -0.063    21.844     6.679
    11   6 C        2.726     0.318    21.599     7.608
    12   8 O        0.860    -0.345    20.619     6.088
    13   7 N        2.740    -0.042    22.058     6.975
    14   6 C        3.700    -0.080    22.200     6.738
    15   1 H        0.924     0.120     1.612     1.985
    16   1 H        0.924     0.118     1.633     1.999
    17   1 H        0.924     0.136     1.487     1.907
    18   1 H        0.925     0.157     1.347     1.815
    19   1 H        0.925     0.115     1.655     2.012
    20   1 H        0.925     0.107     1.724     2.053
    21   1 H        0.925     0.107     1.723     2.053
    22   1 H        0.924     0.092     1.855     2.130
    23   1 H        0.924     0.093     1.854     2.129
    24   1 H        0.924     0.137     1.479     1.902
    25   1 H        0.859     0.248     0.892     1.480

 Mol. C6AA /au·bohr⁶  :       6565.249273
 Mol. C8AA /au·bohr⁸  :     151227.877019
 Mol. α(0) /au        :        123.350764


Wiberg/Mayer (AO) data.
largest (>0.10) Wiberg bond orders for each atom

 ---------------------------------------------------------------------------
     #   Z sym  total        # sym  WBO       # sym  WBO       # sym  WBO
 ---------------------------------------------------------------------------
     1   6 C    3.873 --     2 N    1.095    16 H    0.922    15 H    0.912
                            17 H    0.884
     2   7 N    2.902 --     6 C    1.535     1 C    1.095     3 C    0.109
     3   6 C    2.732 --     4 N    1.615    18 H    0.858     2 N    0.109
     4   7 N    3.668 --     3 C    1.615     5 C    1.091    25 H    0.874
     5   6 C    3.699 --     6 C    1.222    13 N    1.215     4 N    1.091
     6   6 C    3.917 --     2 N    1.535     5 C    1.222     7 C    0.938
     7   6 C    3.899 --     8 O    1.697     9 N    1.164     6 C    0.938
     8   8 O    2.038 --     7 C    1.697     9 N    0.140
     9   7 N    3.552 --     7 C    1.164    11 C    1.102    10 C    0.961
                             8 O    0.140    12 O    0.120
    10   6 C    3.892 --    19 H    0.967     9 N    0.961    21 H    0.959
                            20 H    0.959
    11   6 C    3.940 --    12 O    1.699     9 N    1.102    13 N    1.053
    12   8 O    2.013 --    11 C    1.699     9 N    0.120    13 N    0.110
    13   7 N    3.483 --     5 C    1.215    11 C    1.053    14 C    0.977
                            12 O    0.110
    14   6 C    3.914 --    13 N    0.977    22 H    0.961    23 H    0.961
                            24 H    0.955
    15   1 H    0.948 --     1 C    0.912
    16   1 H    0.953 --     1 C    0.922
    17   1 H    0.928 --     1 C    0.884
    18   1 H    0.937 --     3 C    0.858
    19   1 H    0.984 --    10 C    0.967
    20   1 H    0.979 --    10 C    0.959
    21   1 H    0.979 --    10 C    0.959
    22   1 H    0.982 --    14 C    0.961
    23   1 H    0.981 --    14 C    0.961
    24   1 H    0.980 --    14 C    0.955
    25   1 H    0.917 --     4 N    0.874
 ---------------------------------------------------------------------------

Topologies differ in total number of bonds
Writing topology from bond orders to xtbtopo.mol

molecular dipole:
                 x           y           z       tot (Debye)
 q only:        1.435      -1.628       0.008
   full:        1.288      -1.506       0.018       5.037
molecular quadrupole (traceless):
                xx          xy          yy          xz          yz          zz
 q only:        6.384      -0.638      11.017       0.153       0.033     -17.401
  q+dip:        2.398       2.813       9.709       0.228       0.038     -12.106
   full:        0.795       2.555       9.011       0.229       0.010      -9.806

           -------------------------------------------------
          |                Geometry Summary                 |
           -------------------------------------------------

      molecular mass/u    :      195.1988581
   center of mass at/Å    :        0.0485437      -0.0590154      -0.0011984
  moments of inertia/u·Å² :        0.5437775E+03   0.6909671E+03   0.1225171E+04
rotational constants/cm⁻¹ :        0.3100097E-01   0.2439716E-01   0.1375941E-01

 * 23 selected distances

     #   Z          #   Z                                           value/Å
     1   6 C        2   7 N                                       1.3946285
     3   6 C        4   7 N                                       1.2858198
     4   7 N        5   6 C                                       1.3912099
     2   7 N        6   6 C                                       1.2911618
     5   6 C        6   6 C                                       1.4094629
     7   6 C        8   8 O                                       1.2085685
     7   6 C        9   7 N                                       1.3686765
     9   7 N       10   6 C                                       1.4590941 (max)
     9   7 N       11   6 C                                       1.3825328
    11   6 C       12   8 O                                       1.1998732
     5   6 C       13   7 N                                       1.3560176
    11   6 C       13   7 N                                       1.4026962
    13   7 N       14   6 C                                       1.4521837
     1   6 C       15   1 H                                       1.0952949
     1   6 C       16   1 H                                       1.0939668
     1   6 C       17   1 H                                       1.0966759
    10   6 C       19   1 H                                       1.0867512
    10   6 C       20   1 H                                       1.0897906
    10   6 C       21   1 H                                       1.0898147
    14   6 C       22   1 H                                       1.0913906
    14   6 C       23   1 H                                       1.0914688
    14   6 C       24   1 H                                       1.0914314
     4   7 N       25   1 H                                       1.0279488 (min)

 * 5 distinct bonds (by element types)

   Z      Z             #   av. dist./Å        max./Å        min./Å
   1 H    6 C           9     1.0918428     1.0966759     1.0867512
   6 C    6 C           1     1.4094629     1.4094629     1.4094629
   1 H    7 N           1     1.0279488     1.0279488     1.0279488
   6 C    7 N          10     1.3784021     1.4590941     1.2858198
   6 C    8 O           2     1.2042208     1.2085685     1.1998732


optimized geometry written to: xtbopt.xyz


           -------------------------------------------------
          | TOTAL ENERGY              -42.094381521644 Eh   |
          | GRADIENT NORM               0.009501748313 Eh/α |
          | HOMO-LUMO GAP               0.132450287207 eV   |
           -------------------------------------------------

------------------------------------------------------------------------
 * finished run on 2024/06/05 at 19:57:55.571     
------------------------------------------------------------------------
 total:
 * wall-time:     0 d,  0 h,  0 min,  0.214 sec
 *  cpu-time:     0 d,  0 h,  0 min,  0.187 sec
 * ratio c/w:     0.874 speedup
 SCF:
 * wall-time:     0 d,  0 h,  0 min,  0.026 sec
 *  cpu-time:     0 d,  0 h,  0 min,  0.026 sec
 * ratio c/w:     1.000 speedup
 ANC optimizer:
 * wall-time:     0 d,  0 h,  0 min,  0.155 sec
 *  cpu-time:     0 d,  0 h,  0 min,  0.148 sec
 * ratio c/w:     0.955 speedup

