      -----------------------------------------------------------      
     |                   =====================                   |     
     |                           x T B                           |     
     |                   =====================                   |     
     |                         S. Grimme                         |     
     |          Mulliken Center for Theoretical Chemistry        |     
     |                    University of Bonn                     |     
      -----------------------------------------------------------      

   * xtb version 6.6.1 (8d0f1dd) compiled by 'conda@1efc2f54142f' on 2023-08-01

   xtb is free software: you can redistribute it and/or modify it under
   the terms of the GNU Lesser General Public License as published by
   the Free Software Foundation, either version 3 of the License, or
   (at your option) any later version.
   
   xtb is distributed in the hope that it will be useful,
   but WITHOUT ANY WARRANTY; without even the implied warranty of
   MERCHANTABILITY or FITNESS FOR A PARTICULAR PURPOSE.  See the
   GNU Lesser General Public License for more details.
   
   Cite this work as:
   * C. Bannwarth, E. Caldeweyher, S. Ehlert, A. Hansen, P. Pracht,
     J. Seibert, S. Spicher, S. Grimme, WIREs Comput. Mol. Sci., 2020, 11,
     e01493. DOI: 10.1002/wcms.1493
   
   for GFN2-xTB:
   * C. Bannwarth, S. Ehlert and S. Grimme., J. Chem. Theory Comput., 2019,
     15, 1652-1671. DOI: 10.1021/acs.jctc.8b01176
   for GFN1-xTB:
   * S. Grimme, C. Bannwarth, P. Shushkov, J. Chem. Theory Comput., 2017,
     13, 1989-2009. DOI: 10.1021/acs.jctc.7b00118
   for GFN0-xTB:
   * P. Pracht, E. Caldeweyher, S. Ehlert, S. Grimme, ChemRxiv, 2019, preprint.
     DOI: 10.26434/chemrxiv.8326202.v1
   for GFN-FF:
   * S. Spicher and S. Grimme, Angew. Chem. Int. Ed., 2020, 59, 15665-15673.
     DOI: 10.1002/anie.202004239
   
   for ALPB and GBSA implicit solvation:
   * S. Ehlert, M. Stahn, S. Spicher, S. Grimme, J. Chem. Theory Comput.,
     2021, 17, 4250-4261. DOI: 10.1021/acs.jctc.1c00471
   
   for DFT-D4:
   * E. Caldeweyher, C. Bannwarth and S. Grimme, J. Chem. Phys., 2017,
     147, 034112. DOI: 10.1063/1.4993215
   * E. Caldeweyher, S. Ehlert, A. Hansen, H. Neugebauer, S. Spicher,
     C. Bannwarth and S. Grimme, J. Chem. Phys., 2019, 150, 154122.
     DOI: 10.1063/1.5090222
   * E. Caldeweyher, J.-M. Mewes, S. Ehlert and S. Grimme, Phys. Chem. Chem. Phys.
     2020, 22, 8499-8512. DOI: 10.1039/D0CP00502A
   
   for sTDA-xTB:
   * S. Grimme and C. Bannwarth, J. Chem. Phys., 2016, 145, 054103.
     DOI: 10.1063/1.4959605
   
   in the mass-spec context:
   * V. Asgeirsson, C. Bauer and S. Grimme, Chem. Sci., 2017, 8, 4879.
     DOI: 10.1039/c7sc00601b
   * J. Koopman and S. Grimme, ACS Omega 2019, 4, 12, 15120-15133.
     DOI: 10.1021/acsomega.9b02011
   
   for metadynamics refer to:
   * S. Grimme, J. Chem. Theory Comput., 2019, 155, 2847-2862
     DOI: 10.1021/acs.jctc.9b00143
   
   for SPH calculations refer to:
   * S. Spicher and S. Grimme, J. Chem. Theory Comput., 2021, 17, 1701-1714
     DOI: 10.1021/acs.jctc.0c01306
   
   with help from (in alphabetical order)
   P. Atkinson, C. Bannwarth, F. Bohle, G. Brandenburg, E. Caldeweyher
   M. Checinski, S. Dohm, S. Ehlert, S. Ehrlich, I. Gerasimov, C. Hölzer
   A. Katbashev, J. Koopman, C. Lavigne, S. Lehtola, F. März, M. Müller,
   F. Musil, H. Neugebauer, J. Pisarek, C. Plett, P. Pracht, F. Pultar,
   J. Seibert, P. Shushkov, S. Spicher, M. Stahn, M. Steiner, T. Strunk,
   J. Stückrath, T. Rose, and J. Unsleber
   
 * started run on 2024/06/05 at 19:59:20.929     

           -------------------------------------------------
          |                Calculation Setup                |
           -------------------------------------------------

          program call               : xtb xtbopt.xyz --opt crude --input .xc2 --gfn2
          hostname                   : n-62-31-11
          coordinate file            : xtbopt.xyz
          omp threads                :                     1

   ID    Z sym.   atoms
    1    6 C      1, 3, 5-7, 10, 11, 14
    2    7 N      2, 4, 9, 13
    3    8 O      8, 12
    4    1 H      15-25
########################################################################
[WARNING] Please study the warnings concerning your input carefully
-1- readin_getIntValue: could not parse ''
########################################################################

           -------------------------------------------------
          |                 G F N 2 - x T B                 |
           -------------------------------------------------

        Reference                      10.1021/acs.jctc.8b01176
      * Hamiltonian:
        H0-scaling (s, p, d)           1.850000    2.230000    2.230000
        zeta-weighting                 0.500000
      * Dispersion:
        s8                             2.700000
        a1                             0.520000
        a2                             5.000000
        s9                             5.000000
      * Repulsion:
        kExp                           1.500000    1.000000
        rExp                           1.000000
      * Coulomb:
        alpha                          2.000000
        third order                    shell-resolved
        anisotropic                    true
        a3                             3.000000
        a5                             4.000000
        cn-shift                       1.200000
        cn-exp                         4.000000
        max-rad                        5.000000

q/qsh data taken from xtbrestart
CAMM data taken from xtbrestart

          ...................................................
          :                      SETUP                      :
          :.................................................:
          :  # basis functions                  67          :
          :  # atomic orbitals                  67          :
          :  # shells                           39          :
          :  # electrons                        74          :
          :  max. iterations                   250          :
          :  Hamiltonian                  GFN2-xTB          :
          :  restarted?                       true          :
          :  GBSA solvation                  false          :
          :  PC potential                    false          :
          :  electronic temp.         5000.0000000     K    :
          :  accuracy                    1.0000000          :
          :  -> integral cutoff          0.2500000E+02      :
          :  -> integral neglect         0.1000000E-07      :
          :  -> SCF convergence          0.1000000E-05 Eh   :
          :  -> wf. convergence          0.1000000E-03 e    :
          :  Broyden damping             0.4000000          :
          ...................................................

 iter      E             dE          RMSdq      gap      omega  full diag
   1    -42.7184214 -0.427184E+02  0.140E-05    1.54       0.0  T
   2    -42.7184214  0.667200E-11  0.212E-05    1.54     942.1  T
   3    -42.7184214 -0.112124E-10  0.296E-06    1.54    6764.8  T

   *** convergence criteria satisfied after 3 iterations ***

         #    Occupation            Energy/Eh            Energy/eV
      -------------------------------------------------------------
         1        2.0000           -0.9016971             -24.5364
       ...           ...                  ...                  ...
        31        1.9999           -0.6161013             -16.7650
        32        1.9999           -0.6121664             -16.6579
        33        1.9998           -0.6087070             -16.5638
        34        1.9992           -0.5843188             -15.9001
        35        1.9987           -0.5762659             -15.6810
        36        1.9956           -0.5569978             -15.1567
        37        1.7040           -0.4878965             -13.2763 (HOMO)
        38        0.2784           -0.4313332             -11.7372 (LUMO)
        39        0.0208           -0.3880644             -10.5598
        40        0.0037           -0.3606457              -9.8137
        41        0.0001           -0.2931721              -7.9776
        42        0.0000           -0.2051598              -5.5827
       ...           ...                  ...                  ...
        67                          0.5372466              14.6192
      -------------------------------------------------------------
                  HL-Gap            0.0565633 Eh            1.5392 eV
             Fermi-level           -0.4601796 Eh          -12.5221 eV

 SCC (total)                   0 d,  0 h,  0 min,  0.026 sec
 SCC setup                      ...        0 min,  0.000 sec (  1.015%)
 Dispersion                     ...        0 min,  0.000 sec (  1.243%)
 classical contributions        ...        0 min,  0.000 sec (  0.334%)
 integral evaluation            ...        0 min,  0.005 sec ( 21.049%)
 iterations                     ...        0 min,  0.006 sec ( 23.246%)
 molecular gradient             ...        0 min,  0.013 sec ( 52.458%)
 printout                       ...        0 min,  0.000 sec (  0.608%)

         :::::::::::::::::::::::::::::::::::::::::::::::::::::
         ::                     SUMMARY                     ::
         :::::::::::::::::::::::::::::::::::::::::::::::::::::
         :: total energy             -42.192123332633 Eh    ::
         :: gradient norm              0.007596478924 Eh/a0 ::
         :: HOMO-LUMO gap              1.539165447667 eV    ::
         ::.................................................::
         :: SCC energy               -42.718421439614 Eh    ::
         :: -> isotropic ES            0.123781756019 Eh    ::
         :: -> anisotropic ES         -0.002755836837 Eh    ::
         :: -> anisotropic XC          0.011331514500 Eh    ::
         :: -> dispersion             -0.023073011298 Eh    ::
         :: repulsion energy           0.526176477336 Eh    ::
         :: add. restraining           0.000000000000 Eh    ::
         :: total charge               0.999999999998 e     ::
         :::::::::::::::::::::::::::::::::::::::::::::::::::::

      ----------------------------------------------------------- 
     |                   =====================                   |
     |                        A N C O P T                        |
     |                   =====================                   |
     |               Approximate Normal Coordinate               |
     |                Rational Function Optimizer                |
      ----------------------------------------------------------- 

          ...................................................
          :                      SETUP                      :
          :.................................................:
          :   optimization level             crude          :
          :   max. optcycles                   200          :
          :   ANC micro-cycles                  20          :
          :   degrees of freedom                69          :
          :.................................................:
          :   RF solver                   davidson          :
          :   write xtbopt.log                true          :
          :   linear?                        false          :
          :   energy convergence         0.5000000E-03 Eh   :
          :   grad. convergence          0.1000000E-01 Eh/α :
          :   maxmium RF displ.          1.0000000          :
          :   Hlow (freq-cutoff)         0.1000000E-01      :
          :   Hmax (freq-cutoff)         5.0000000          :
          :   S6 in model hess.         20.0000000          :
          ...................................................

generating ANC from model Hessian ...
Using Lindh-Hessian (1995)
 Shifting diagonal of input Hessian by    7.0374301452721909E-003
 Lowest  eigenvalues of input Hessian
    0.000000    0.000000    0.000000    0.000000    0.000000    0.000000
    0.010000    0.010615    0.012271    0.016695    0.017116    0.017719
    0.018735    0.022123    0.025479    0.027022    0.029326    0.039575
 Highest eigenvalues
    2.027898    2.195863    2.246068    2.279885    2.341258    2.528460


........................................................................
.............................. CYCLE    1 ..............................
........................................................................

 iter      E             dE          RMSdq      gap      omega  full diag
   1    -42.7184214 -0.427184E+02  0.165E-06    1.54       0.0  T
   2    -42.7184214 -0.497380E-13  0.154E-06    1.54   13027.6  T
   3    -42.7184214 -0.113687E-12  0.645E-07    1.54   31000.7  T
     SCC iter.                  ...        0 min,  0.005 sec
     gradient                   ...        0 min,  0.014 sec
 * total energy  :   -42.1921233 Eh     change       -0.7105427E-13 Eh
   gradient norm :     0.0075965 Eh/α   predicted     0.0000000E+00 (-100.00%)
   displ. norm   :     0.2191615 α      lambda       -0.1099899E-02
   maximum displ.:     0.1225706 α      in ANC's #10, #5, #2, ...

   *** GEOMETRY OPTIMIZATION CONVERGED AFTER 1 ITERATIONS ***

------------------------------------------------------------------------
 total energy gain   :        -0.0000000 Eh       -0.0000 kcal/mol
 total RMSD          :         0.0000000 a0        0.0000 Å
 total power (kW/mol):        -0.0000000 (step)   -0.0000 (real)
------------------------------------------------------------------------

 ANCopt (total)                0 d,  0 h,  0 min,  0.034 sec
 optimizer setup                ...        0 min,  0.000 sec (  1.219%)
 model hessian                  ...        0 min,  0.006 sec ( 18.763%)
 ANC generation                 ...        0 min,  0.001 sec (  2.289%)
 coordinate transformation      ...        0 min,  0.000 sec (  0.027%)
 single point calculation       ...        0 min,  0.024 sec ( 69.968%)
 optimization log               ...        0 min,  0.002 sec (  6.817%)
 hessian update                 ...        0 min,  0.000 sec (  0.005%)
 rational function              ...        0 min,  0.000 sec (  0.341%)

================
 final structure:
================
25
 xtb: 6.6.1 (8d0f1dd)
C            3.28898035818242        0.92757191610882        0.08942573504764
N            2.37833244930452       -0.04209395193354        0.02578812172718
C            2.58846560664117       -1.37172929264573       -0.10207499133989
N            1.38821241345605       -2.04023821561932       -0.11880938054196
C            0.39663748169373       -1.14324153800470       -0.00215001851995
C            0.98913547482911        0.13105470679046        0.06682951473646
C            0.18901324401098        1.26557638019956        0.02197924552850
O            0.63391292903079        2.51092831344004       -0.07608038383955
N           -1.15818774776014        1.06385307174094        0.04020311915590
C           -2.07183839992629        2.19676016355887        0.02199140403807
C           -1.78268620282202       -0.19160402127365        0.06516805742537
O           -2.97487012434122       -0.29064888555448        0.10488045132847
N           -0.94665684119878       -1.31214856646066        0.02108045066319
C           -1.54157888238388       -2.63475302233305        0.00353534393807
H            3.05493253451509        1.89265084953054        0.48394482460834
H            4.31438445014147        0.68127066642970       -0.06890720273027
H            1.59892796860306        2.51702658416891       -0.22369385290435
H            3.54659761840299       -1.83633755120599       -0.17732587095745
H           -1.50057364789013        3.11880292338630        0.03815725743683
H           -2.68994038803105        2.15245867348799       -0.87467915110396
H           -2.72847162875896        2.14394148539471        0.88974661317823
H           -1.19952783464790       -3.21419264219076        0.86136014888181
H           -1.29111707049364       -3.15356172814436       -0.92227783758230
H           -2.62187924790032       -2.51218266314508        0.06212384358098
H            1.30022700144292       -3.04092511412552       -0.19904382385542

 Bond Distances (Angstroems)
 ---------------------------
C1-N2=1.3318         C1-H15=1.0686        C1-H16=1.0664        N2-C1=1.3318         N2-C3=1.3522         N2-C6=1.4005         
C3-N2=1.3522         C3-N4=1.3740         C3-H18=1.0675        N4-C3=1.3740         N4-C5=1.3422         N4-H25=1.0077        
C5-N4=1.3422         C5-C6=1.4070         C5-N13=1.3541        C6-N2=1.4005         C6-C5=1.4070         C6-C7=1.3890         
C7-C6=1.3890         C7-O8=1.3261         C7-N9=1.3623         O8-C7=1.3261         O8-H17=0.9763        N9-C7=1.3623         
N9-C10=1.4555        N9-C11=1.4024        C10-N9=1.4555        C10-H19=1.0848       C10-H20=1.0900       C10-H21=1.0895       
C11-N9=1.4024        C11-O12=1.1970       C11-N13=1.3988       O12-C11=1.1970       N13-C5=1.3541        N13-C11=1.3988       
N13-C14=1.4504       C14-N13=1.4504       C14-H22=1.0902       C14-H23=1.0904       C14-H24=1.0888       H15-C1=1.0686        
H16-C1=1.0664        H17-O8=0.9763        H18-C3=1.0675        H19-C10=1.0848       H20-C10=1.0900       H21-C10=1.0895       
H22-C14=1.0902       H23-C14=1.0904       H24-C14=1.0888       H25-N4=1.0077        
 C  H  Rav=1.0818 sigma=0.0103  Rmin=1.0664  Rmax=1.0904     9
 C  C  Rav=1.3980 sigma=0.0090  Rmin=1.3890  Rmax=1.4070     2
 N  H  Rav=1.0077 sigma=0.0000  Rmin=1.0077  Rmax=1.0077     1
 N  C  Rav=1.3840 sigma=0.0397  Rmin=1.3318  Rmax=1.4555    11
 O  H  Rav=0.9763 sigma=0.0000  Rmin=0.9763  Rmax=0.9763     1
 O  C  Rav=1.2615 sigma=0.0646  Rmin=1.1970  Rmax=1.3261     2

 selected bond angles (degree)
 --------------------
H15-C1-N2=121.70               H16-C1-N2=118.83               H16-C1-H15=118.30              C3-N2-C1=127.90                
C6-N2-C1=125.93                C6-N2-C3=106.17                N4-C3-N2=110.11                H18-C3-N2=125.04               
H18-C3-N4=124.85               C5-N4-C3=108.61                H25-N4-C3=124.08               H25-N4-C5=127.30               
C6-C5-N4=107.36                N13-C5-N4=130.62               N13-C5-C6=122.00               C5-C6-N2=107.72                
C7-C6-N2=132.18                C7-C6-C5=119.71                O8-C7-C6=125.18                N9-C7-C6=116.63                
N9-C7-O8=118.15                H17-O8-C7=110.41               C10-N9-C7=120.35               C11-N9-C7=124.97               
C11-N9-C10=114.68              H19-C10-N9=109.32              H20-C10-N9=109.55              H20-C10-H19=110.21             
H21-C10-N9=109.31              H21-C10-H19=110.29             H21-C10-H20=108.15             

 selected dihedral angles (degree)
 ---------------------------------
C3-N2-C1-H15=199.14           C3-N2-C1-H16=  6.56           C6-N2-C1-H15= 19.82           C6-N2-C1-H16=187.24           
N4-C3-N2-C1=179.50            N4-C3-N2-C6=358.93            H18-C3-N2-C1=359.61           H18-C3-N2-C6=179.04           
C5-N4-C3-N2=  0.02            C5-N4-C3-H18=179.92           H25-N4-C3-N2=180.48           H25-N4-C3-H18=  0.37          
C6-C5-N4-C3=  1.03            C6-C5-N4-H25=180.56           N13-C5-N4-C3=179.43           N13-C5-N4-H25=358.96          
C5-C6-N2-C1=181.12            C5-C6-N2-C3=  1.67            C7-C6-N2-C1=  8.63            C7-C6-N2-C3=189.19            
N2-C6-C5-N4=358.32            N2-C6-C5-N13=179.75           C7-C6-C5-N4=171.91            C7-C6-C5-N13=353.34           
O8-C7-C6-N2=359.94            O8-C7-C6-C5=188.18            N9-C7-C6-N2=177.84            N9-C7-C6-C5=  6.08            
H17-O8-C7-C6=  6.99           H17-O8-C7-N9=189.11           C10-N9-C7-C6=178.82           C10-N9-C7-O8=356.88           
C11-N9-C7-C6=358.25           C11-N9-C7-O8=176.31           H19-C10-N9-C7=357.54          H19-C10-N9-C11=178.05         
H20-C10-N9-C7=118.39          H20-C10-N9-C11=298.91         H21-C10-N9-C7=236.73          H21-C10-N9-C11= 57.24         
           -------------------------------------------------
          |                Final Singlepoint                |
           -------------------------------------------------

          ...................................................
          :                      SETUP                      :
          :.................................................:
          :  # basis functions                  67          :
          :  # atomic orbitals                  67          :
          :  # shells                           39          :
          :  # electrons                        74          :
          :  max. iterations                   250          :
          :  Hamiltonian                  GFN2-xTB          :
          :  restarted?                      false          :
          :  GBSA solvation                  false          :
          :  PC potential                    false          :
          :  electronic temp.         5000.0000000     K    :
          :  accuracy                    1.0000000          :
          :  -> integral cutoff          0.2500000E+02      :
          :  -> integral neglect         0.1000000E-07      :
          :  -> SCF convergence          0.1000000E-05 Eh   :
          :  -> wf. convergence          0.1000000E-03 e    :
          :  Broyden damping             0.4000000          :
          ...................................................

 iter      E             dE          RMSdq      gap      omega  full diag
   1    -42.7184214 -0.427184E+02  0.449E-07    1.54       0.0  T
   2    -42.7184214 -0.142109E-12  0.491E-07    1.54   40748.7  T
   3    -42.7184214 -0.639488E-13  0.204E-07    1.54   98093.1  T

   *** convergence criteria satisfied after 3 iterations ***

         #    Occupation            Energy/Eh            Energy/eV
      -------------------------------------------------------------
         1        2.0000           -0.9016971             -24.5364
       ...           ...                  ...                  ...
        31        1.9999           -0.6161013             -16.7650
        32        1.9999           -0.6121664             -16.6579
        33        1.9998           -0.6087070             -16.5638
        34        1.9992           -0.5843188             -15.9001
        35        1.9987           -0.5762659             -15.6810
        36        1.9956           -0.5569978             -15.1567
        37        1.7040           -0.4878965             -13.2763 (HOMO)
        38        0.2784           -0.4313332             -11.7372 (LUMO)
        39        0.0208           -0.3880644             -10.5598
        40        0.0037           -0.3606457              -9.8137
        41        0.0001           -0.2931721              -7.9776
        42        0.0000           -0.2051598              -5.5827
       ...           ...                  ...                  ...
        67                          0.5372466              14.6192
      -------------------------------------------------------------
                  HL-Gap            0.0565633 Eh            1.5392 eV
             Fermi-level           -0.4601796 Eh          -12.5221 eV

 SCC (total)                   0 d,  0 h,  0 min,  0.024 sec
 SCC setup                      ...        0 min,  0.000 sec (  0.868%)
 Dispersion                     ...        0 min,  0.000 sec (  0.745%)
 classical contributions        ...        0 min,  0.000 sec (  0.307%)
 integral evaluation            ...        0 min,  0.005 sec ( 19.870%)
 iterations                     ...        0 min,  0.005 sec ( 20.527%)
 molecular gradient             ...        0 min,  0.014 sec ( 57.139%)
 printout                       ...        0 min,  0.000 sec (  0.494%)

         :::::::::::::::::::::::::::::::::::::::::::::::::::::
         ::                     SUMMARY                     ::
         :::::::::::::::::::::::::::::::::::::::::::::::::::::
         :: total energy             -42.192123332633 Eh    ::
         :: gradient norm              0.007596472174 Eh/a0 ::
         :: HOMO-LUMO gap              1.539165582136 eV    ::
         ::.................................................::
         :: SCC energy               -42.718421439614 Eh    ::
         :: -> isotropic ES            0.123781771176 Eh    ::
         :: -> anisotropic ES         -0.002755836476 Eh    ::
         :: -> anisotropic XC          0.011331514257 Eh    ::
         :: -> dispersion             -0.023073011219 Eh    ::
         :: repulsion energy           0.526176477336 Eh    ::
         :: add. restraining           0.000000000000 Eh    ::
         :: total charge               0.999999999998 e     ::
         :::::::::::::::::::::::::::::::::::::::::::::::::::::

           -------------------------------------------------
          |                Property Printout                |
           -------------------------------------------------

    * Orbital Energies and Occupations

         #    Occupation            Energy/Eh            Energy/eV
      -------------------------------------------------------------
         1        2.0000           -0.9016971             -24.5364
       ...           ...                  ...                  ...
        25        2.0000           -0.6703141             -18.2402
        26        2.0000           -0.6684543             -18.1896
        27        2.0000           -0.6575684             -17.8933
        28        2.0000           -0.6466566             -17.5964
        29        2.0000           -0.6392214             -17.3941
        30        1.9999           -0.6220265             -16.9262
        31        1.9999           -0.6161013             -16.7650
        32        1.9999           -0.6121664             -16.6579
        33        1.9998           -0.6087070             -16.5638
        34        1.9992           -0.5843188             -15.9001
        35        1.9987           -0.5762659             -15.6810
        36        1.9956           -0.5569978             -15.1567
        37        1.7040           -0.4878965             -13.2763 (HOMO)
        38        0.2784           -0.4313332             -11.7372 (LUMO)
        39        0.0208           -0.3880644             -10.5598
        40        0.0037           -0.3606457              -9.8137
        41        0.0001           -0.2931721              -7.9776
        42        0.0000           -0.2051598              -5.5827
        43                         -0.1720387              -4.6814
        44                         -0.1448981              -3.9429
        45                         -0.1302537              -3.5444
        46                         -0.1097627              -2.9868
        47                         -0.0681173              -1.8536
        48                         -0.0357279              -0.9722
       ...                                ...                  ...
        67                          0.5372466              14.6192
      -------------------------------------------------------------
                  HL-Gap            0.0565633 Eh            1.5392 eV
             Fermi-level           -0.4601796 Eh          -12.5221 eV

     #   Z          covCN         q      C6AA      α(0)
     1   6 C        2.788    -0.129    31.277     9.161
     2   7 N        2.794     0.103    19.467     6.553
     3   6 C        3.036    -0.004    28.085     8.692
     4   7 N        2.773    -0.062    22.447     7.037
     5   6 C        3.015     0.105    25.670     8.311
     6   6 C        3.105    -0.037    28.789     8.792
     7   6 C        2.775     0.202    23.709     7.975
     8   8 O        1.659    -0.328    19.498     5.961
     9   7 N        2.746    -0.049    22.183     6.995
    10   6 C        3.706    -0.070    21.986     6.703
    11   6 C        2.727     0.312    21.693     7.625
    12   8 O        0.859    -0.355    20.810     6.116
    13   7 N        2.737    -0.058    22.365     7.024
    14   6 C        3.698    -0.072    22.045     6.716
    15   1 H        0.927     0.071     2.076     2.253
    16   1 H        0.927     0.083     1.953     2.185
    17   1 H        0.804     0.352     0.583     1.200
    18   1 H        0.927     0.105     1.741     2.063
    19   1 H        0.925     0.109     1.701     2.040
    20   1 H        0.925     0.104     1.751     2.069
    21   1 H        0.925     0.107     1.720     2.051
    22   1 H        0.924     0.084     1.935     2.175
    23   1 H        0.924     0.084     1.942     2.179
    24   1 H        0.925     0.125     1.577     1.964
    25   1 H        0.860     0.219     1.014     1.578

 Mol. C6AA /au·bohr⁶  :       6647.557141
 Mol. C8AA /au·bohr⁸  :     153326.736080
 Mol. α(0) /au        :        125.416764


Wiberg/Mayer (AO) data.
largest (>0.10) Wiberg bond orders for each atom

 ---------------------------------------------------------------------------
     #   Z sym  total        # sym  WBO       # sym  WBO       # sym  WBO
 ---------------------------------------------------------------------------
     1   6 C    3.570 --     2 N    1.307    16 H    0.971    15 H    0.955
                             3 C    0.177
     2   7 N    3.721 --     1 C    1.307     3 C    1.248     6 C    1.070
     3   6 C    3.708 --     2 N    1.248     4 N    1.176    18 H    0.960
                             1 C    0.177
     4   7 N    3.555 --     5 C    1.260     3 C    1.176    25 H    0.924
     5   6 C    3.866 --     4 N    1.260     6 C    1.234    13 N    1.178
     6   6 C    3.906 --     7 C    1.295     5 C    1.234     2 N    1.070
     7   6 C    3.782 --     6 C    1.295     9 N    1.203     8 O    1.160
     8   8 O    2.179 --     7 C    1.160    17 H    0.825
     9   7 N    3.536 --     7 C    1.203    11 C    1.068    10 C    0.969
                            12 O    0.126
    10   6 C    3.916 --    19 H    0.971     9 N    0.969    20 H    0.964
                            21 H    0.963
    11   6 C    3.946 --    12 O    1.716    13 N    1.072     9 N    1.068
    12   8 O    2.068 --    11 C    1.716    13 N    0.136     9 N    0.126
    13   7 N    3.516 --     5 C    1.178    11 C    1.072    14 C    0.974
                            12 O    0.136
    14   6 C    3.926 --    13 N    0.974    22 H    0.971    23 H    0.970
                            24 H    0.966
    15   1 H    0.994 --     1 C    0.955
    16   1 H    0.992 --     1 C    0.971
    17   1 H    0.875 --     8 O    0.825
    18   1 H    0.988 --     3 C    0.960
    19   1 H    0.987 --    10 C    0.971
    20   1 H    0.984 --    10 C    0.964
    21   1 H    0.983 --    10 C    0.963
    22   1 H    0.989 --    14 C    0.971
    23   1 H    0.989 --    14 C    0.970
    24   1 H    0.984 --    14 C    0.966
    25   1 H    0.952 --     4 N    0.924
 ---------------------------------------------------------------------------

Topologies differ in total number of bonds
Writing topology from bond orders to xtbtopo.mol

molecular dipole:
                 x           y           z       tot (Debye)
 q only:        1.786      -0.783      -0.183
   full:        2.266      -1.067      -0.194       6.386
molecular quadrupole (traceless):
                xx          xy          yy          xz          yz          zz
 q only:        1.672      -3.539      15.498      -0.661       0.469     -17.171
  q+dip:       -0.475      -4.469      15.862      -0.553       1.142     -15.387
   full:       -1.319      -4.043      15.587      -0.448       0.912     -14.268

           -------------------------------------------------
          |                Geometry Summary                 |
           -------------------------------------------------

      molecular mass/u    :      195.1988581
   center of mass at/Å    :        0.0630862      -0.0421899       0.0095432
  moments of inertia/u·Å² :        0.4829525E+03   0.7045236E+03   0.1179089E+04
rotational constants/cm⁻¹ :        0.3490536E-01   0.2392770E-01   0.1429717E-01

 * 26 selected distances

     #   Z          #   Z                                           value/Å
     1   6 C        2   7 N                                       1.3317588
     2   7 N        3   6 C                                       1.3521965
     3   6 C        4   7 N                                       1.3739695
     4   7 N        5   6 C                                       1.3421750
     2   7 N        6   6 C                                       1.4005476
     5   6 C        6   6 C                                       1.4069980
     6   6 C        7   6 C                                       1.3890093
     7   6 C        8   8 O                                       1.3260668
     7   6 C        9   7 N                                       1.3623418
     9   7 N       10   6 C                                       1.4555302 (max)
     9   7 N       11   6 C                                       1.4024245
    11   6 C       12   8 O                                       1.1969502
     5   6 C       13   7 N                                       1.3540713
    11   6 C       13   7 N                                       1.3987527
    13   7 N       14   6 C                                       1.4503527
     1   6 C       15   1 H                                       1.0685510
     1   6 C       16   1 H                                       1.0663899
     8   8 O       17   1 H                                       0.9762587 (min)
     3   6 C       18   1 H                                       1.0674927
    10   6 C       19   1 H                                       1.0847893
    10   6 C       20   1 H                                       1.0899683
    10   6 C       21   1 H                                       1.0894753
    14   6 C       22   1 H                                       1.0902352
    14   6 C       23   1 H                                       1.0904237
    14   6 C       24   1 H                                       1.0888091
     4   7 N       25   1 H                                       1.0077467

 * 6 distinct bonds (by element types)

   Z      Z             #   av. dist./Å        max./Å        min./Å
   1 H    6 C           9     1.0817927     1.0904237     1.0663899
   6 C    6 C           2     1.3980037     1.4069980     1.3890093
   1 H    7 N           1     1.0077467     1.0077467     1.0077467
   6 C    7 N          11     1.3840110     1.4555302     1.3317588
   1 H    8 O           1     0.9762587     0.9762587     0.9762587
   6 C    8 O           2     1.2615085     1.3260668     1.1969502


optimized geometry written to: xtbopt.xyz


           -------------------------------------------------
          | TOTAL ENERGY              -42.192123332633 Eh   |
          | GRADIENT NORM               0.007596472174 Eh/α |
          | HOMO-LUMO GAP               1.539165582136 eV   |
           -------------------------------------------------

------------------------------------------------------------------------
 * finished run on 2024/06/05 at 19:59:21.073     
------------------------------------------------------------------------
 total:
 * wall-time:     0 d,  0 h,  0 min,  0.144 sec
 *  cpu-time:     0 d,  0 h,  0 min,  0.097 sec
 * ratio c/w:     0.674 speedup
 SCF:
 * wall-time:     0 d,  0 h,  0 min,  0.026 sec
 *  cpu-time:     0 d,  0 h,  0 min,  0.026 sec
 * ratio c/w:     1.000 speedup
 ANC optimizer:
 * wall-time:     0 d,  0 h,  0 min,  0.065 sec
 *  cpu-time:     0 d,  0 h,  0 min,  0.057 sec
 * ratio c/w:     0.880 speedup

