72
 energy: -99.264669461699 gnorm: 1.064077200848 xtb: 6.6.1 (8d0f1dd)
N           -1.63725622765086        1.00706640619885        2.05504645485371
C           -1.53336819317033        1.04592628992309        0.80642898330646
C           -2.72534659964453        1.13052188068055       -0.12330277268745
C           -3.69407572482231       -0.01648433339756        0.06128788174282
C           -4.79260219485893       -0.12428716352955       -0.74351400721386
C           -5.72270409137801       -1.16757931325669       -0.62263101121261
O           -6.82271719375090       -1.31124245466827       -1.35624920958380
C           -7.16470195999528       -0.35001116958494       -2.33135436398375
C           -5.50592155016079       -2.20299389740518        0.35858330033904
O           -6.43648129175909       -3.17768379830460        0.34381682958184
C           -6.33054051848197       -4.23078322804728        1.27557706509042
C           -4.42907573158192       -2.13076352854723        1.17787219349903
C           -3.43177488977167       -1.01158652071059        1.15203574410201
C           -2.09694303206107        1.06186323832843       -1.54110482011040
C           -0.72062533009607        0.42863723491718       -1.35191157331746
C           -0.24507942674448        1.01548575214437       -0.01169400156412
N            0.81961132160406        0.36573207650631        0.70088207639850
C            2.15933173479372        0.85380458833507        0.50662865269578
C            2.78425495423254        0.55701105414085       -0.88061292056587
C            4.27668525487214        0.63591133259139       -0.77715207248257
C            4.95844562260568        1.82181259635054       -1.00837458705208
C            6.33162412753730        1.89666268333198       -0.83596979399150
C            7.05468925415628        0.78633379133722       -0.42012420821144
O            8.38171462750165        0.74606777126010       -0.20386320890482
C            9.14703568181743        1.91517957978116       -0.38206430213218
C            6.36577543854855       -0.43785911078815       -0.18704704807176
O            7.14007460925575       -1.46683224465938        0.20830692784706
C            6.54424527490472       -2.71400302443990        0.47366119656527
C            4.99300574216909       -0.48718957012585       -0.36807713296137
C            0.70312812219172       -1.05704005855139        0.90163621685958
C           -3.47278325158105        2.48503404705447        0.11411076707395
C           -4.30219196453989        2.44544553090048        1.39407205573226
C           -2.51300311393700        3.67145077364020        0.18330932100262
H           -4.96025421699893        0.62257372416375       -1.50411982171033
H           -7.29266539744483        0.64096529802892       -1.88702711439976
H           -8.11274753934265       -0.68405481699466       -2.74862776176355
H           -6.41561098597181       -0.30414616737892       -3.12695381042027
H           -6.37232817992969       -3.85902161502632        2.30347495016916
H           -7.18769263104946       -4.87414272664819        1.08754822702162
H           -5.40874713659071       -4.80218902963196        1.12913379367476
H           -4.24000743625298       -2.89543670728831        1.91375775736227
H           -3.59765345817720       -0.43153404329804        2.09356756085071
H           -2.71018809345963        0.47983509293279       -2.22635286069889
H           -1.99093789594539        2.06367124196888       -1.95510491685540
H           -0.81388712168287       -0.65514919519933       -1.27273549902571
H           -0.04428936684791        0.65973024013990       -2.17297018411394
H           -2.73217290837159       -1.26231437779509        1.15400106382025
H            0.05291860240015        2.05871284467764       -0.16964345235669
H            2.78640773609739        0.39130134616060        1.27386475058769
H            2.16590943138926        1.93359519719517        0.67739734641828
H            2.41160695862498        1.27161057378801       -1.61462533086498
H            2.49118245972762       -0.44674385892258       -1.19119257435438
H            4.41903602693401        2.69956304631465       -1.32949405110729
H            6.83453160309594        2.83078370571500       -1.02597871911326
H            8.81327442653515        2.71702932703901        0.28348044942067
H            9.11296080089279        2.26250875310096       -1.41903219863876
H           10.16817831193206        1.63681120190308       -0.12817608103144
H            7.35703727355546       -3.36687125529972        0.78632494738162
H            5.80732718443245       -2.64313500384446        1.28022368374517
H            6.06959637381104       -3.13022129872078       -0.42055591201380
H            4.45983345241678       -1.40914908666230       -0.19541700254956
H            0.93823589707957       -1.64722185108719        0.00646616882496
H           -0.31065888678870       -1.29780317747719        1.21657712681519
H            1.38960904000696       -1.35478532532580        1.69379563863347
H           -4.14106065330313        2.63172849734853       -0.74049013152774
H           -3.66226492187442        2.20662995424985        2.23975970577077
H           -5.09690006944974        1.70655814324796        1.33259729054136
H           -4.75434105950369        3.41828789731605        1.56700274456097
H           -1.89556085502409        3.61084858987619        1.07613603448405
H           -1.86582001076071        3.73345074740052       -0.68794435206173
H           -3.08623554295292        4.59364740910620        0.23384444066484
H           -0.76153509442534        0.97460901600195        2.57054430382469
72
 energy: -99.426233315240 gnorm: 0.046441656088 xtb: 6.6.1 (8d0f1dd)
N           -1.63735534176044        1.00719373167323        2.05512787255981
C           -1.53370381570641        1.04558588765993        0.80647511954735
C           -2.72608620845243        1.13070164463081       -0.12344141894538
C           -3.70898561392260       -0.00548720925216        0.05797134682985
C           -4.79704375611947       -0.12206060368072       -0.74834061867260
C           -5.72468980961716       -1.16747652551612       -0.62340302252766
O           -6.82359937386407       -1.31145213620063       -1.35705642138405
C           -7.16479126606093       -0.34994772005865       -2.33156798997695
C           -5.51200409522632       -2.20531542513361        0.35648372670247
O           -6.43890601182564       -3.17990404103774        0.34226329147993
C           -6.33079550571064       -4.23111589502249        1.27554165021100
C           -4.44737016197819       -2.12962213697683        1.18016457154001
C           -3.53501469002033       -0.97145070139749        1.15799886071178
C           -2.09695028054546        1.06164063066873       -1.54098236181807
C           -0.72069885483053        0.42859713793456       -1.35183685324008
C           -0.24540602034086        1.01546613743587       -0.01162895880888
N            0.81964145476285        0.36567481076902        0.70081255504056
C            2.15925721485082        0.85376284480377        0.50677010027977
C            2.78432526638836        0.55701744897273       -0.88049880001505
C            4.27666988965411        0.63586792536062       -0.77707062691324
C            4.95843853175309        1.82177733189528       -1.00837087890019
C            6.33161537411697        1.89664475192957       -0.83596846531855
C            7.05474076711742        0.78632274530201       -0.42010693383655
O            8.38167295731705        0.74610549329616       -0.20390741739895
C            9.14705082322010        1.91525787270796       -0.38214346235695
C            6.36578855527459       -0.43783133802239       -0.18707752758939
O            7.14007960118632       -1.46679231774232        0.20836156172078
C            6.54428170268358       -2.71407960705504        0.47364728222328
C            4.99305873605282       -0.48717913388734       -0.36796496452002
C            0.70308105248915       -1.05715587722882        0.90159735413851
C           -3.47269212788277        2.48531068468608        0.11393229489268
C           -4.30216897190877        2.44546586327147        1.39402292042032
C           -2.51294433815893        3.67155334779209        0.18327472498877
H           -4.96169356325103        0.62352173395471       -1.50700833046569
H           -7.29266356704349        0.64094912422680       -1.88704197452248
H           -8.11275120286050       -0.68397176312314       -2.74878352641848
H           -6.41557604188523       -0.30411140626582       -3.12698063303716
H           -6.37241814351328       -3.85895954209557        2.30335503337803
H           -7.18771905799670       -4.87437171901354        1.08771506905490
H           -5.40885524367278       -4.80208707367474        1.12910834748357
H           -4.24032710411610       -2.89437158318542        1.91302082760119
H           -3.61817198290801       -0.41828064601244        2.10423868339949
H           -2.71018372945816        0.47989365091342       -2.22638281537848
H           -1.99082412619081        2.06356845481330       -1.95501047651906
H           -0.81387899666866       -0.65514303367211       -1.27262647475367
H           -0.04432792539292        0.65967814035954       -2.17290916250970
H           -2.55597983079070       -1.32723167561833        1.15240960803152
H            0.05309945936021        2.05871573995075       -0.16958982049609
H            2.78635309387618        0.39131778969245        1.27390842290485
H            2.16587101489840        1.93350642732808        0.67743679514739
H            2.41165355565521        1.27165065384148       -1.61453687571062
H            2.49114962545428       -0.44673956059241       -1.19123685349131
H            4.41902698313100        2.69955168052457       -1.32946737523796
H            6.83447079047950        2.83078702883349       -1.02598721569670
H            8.81328314781960        2.71706303627424        0.28342053926993
H            9.11289318499942        2.26253134011412       -1.41908349513573
H           10.16816540796141        1.63684591442516       -0.12828284822248
H            7.35710630036265       -3.36682490813740        0.78621488561060
H            5.80744319605096       -2.64318597882963        1.28021580878057
H            6.06960594346080       -3.13017711893395       -0.42054423768952
H            4.45988512525723       -1.40913597795134       -0.19531581753377
H            0.93827996646753       -1.64726159422465        0.00641438600276
H           -0.31064731669531       -1.29782973764586        1.21649542215314
H            1.38952505560143       -1.35489170146974        1.69387635470677
H           -4.14107818111503        2.63178923739435       -0.74053106723376
H           -3.66221170231169        2.20664109838341        2.23971833914245
H           -5.09689072030096        1.70662008690635        1.33260141189315
H           -4.75433604185580        3.41829100814228        1.56705241913689
H           -1.89557118460231        3.61087090807149        1.07607406527817
H           -1.86586406622430        3.73349091261613       -0.68802888887590
H           -3.08629292267792        4.59366642768828        0.23380106682389
H           -0.76152928525174        0.97468852589458        2.57045673467327
72
 energy: -99.427984687988 gnorm: 0.033474375212 xtb: 6.6.1 (8d0f1dd)
N           -1.63965325460801        1.00934027918809        2.05672423033993
C           -1.53702363011856        1.04379104166742        0.80782954005502
C           -2.72906666193407        1.13008501207576       -0.12199661576809
C           -3.70773318748665       -0.00809383627506        0.06206950940589
C           -4.79975545107932       -0.12239743946250       -0.75114246841562
C           -5.73189130384103       -1.16409471771193       -0.62297145665876
O           -6.82883067644894       -1.30967947777018       -1.36032645965512
C           -7.16756343577443       -0.34871074328859       -2.33600504700868
C           -5.51978112026845       -2.20036181002784        0.35897957222013
O           -6.44309262996124       -3.18080110134191        0.33644451125537
C           -6.33403098058565       -4.23176527684579        1.27047710019280
C           -4.45031167673524       -2.12009652471190        1.18779784163221
C           -3.51137988141515       -0.97565271129110        1.16569228699394
C           -2.10002460747766        1.05975826263540       -1.53937248253044
C           -0.72333676663737        0.42749280914099       -1.35055091313436
C           -0.24835754014923        1.01422619805582       -0.01033351920715
N            0.81747066128375        0.36411643604274        0.70145586654725
C            2.15720079384396        0.85249774004742        0.50856139726317
C            2.78403870217077        0.55682910322436       -0.87817251776409
C            4.27632148282516        0.63565640405154       -0.77477374079700
C            4.95779886850156        1.82149139752357       -1.00686389792199
C            6.33103731954713        1.89671124140770       -0.83571095168675
C            7.05474496551864        0.78682584909564       -0.41996108036039
O            8.38185641842267        0.74706848096930       -0.20527063470306
C            9.14674462276999        1.91646764411877       -0.38451956121174
C            6.36610064756018       -0.43728431002609       -0.18603807287836
O            7.14096199287899       -1.46632298506728        0.20812528708304
C            6.54612410861081       -2.71422409332082        0.47301585094877
C            4.99330979747831       -0.48695053518710       -0.36565862275569
C            0.70237589002280       -1.05902399503330        0.90080322186416
C           -3.47380217400862        2.48630246298557        0.11456424131353
C           -4.30236117400285        2.44760162587026        1.39519589802504
C           -2.51400055619726        3.67276866968530        0.18195079693392
H           -4.95752909488022        0.61230349032247       -1.52560566164061
H           -7.29517937667144        0.64223007412109       -1.89157350358646
H           -8.11487575200369       -0.68192536413209       -2.75526972727327
H           -6.41627289885649       -0.30330696896222       -3.12938435388921
H           -6.37679403887570       -3.85821874999644        2.29785739065073
H           -7.18928146553433       -4.87748516610077        1.08356384976621
H           -5.41051404686837       -4.80047176623556        1.12612168676179
H           -4.24907677403701       -2.88169608097583        1.92277828182300
H           -3.58235308946325       -0.42062324743279        2.11607584963871
H           -2.71240628764025        0.47786375547118       -2.22534176981583
H           -1.99316002386238        2.06156233275894       -1.95360393674311
H           -0.81590529151227       -0.65628991934723       -1.27106879449353
H           -0.04673308289776        0.65866722788401       -2.17150332475476
H           -2.52032519870043       -1.34208562834092        1.15378326379650
H            0.05175263219221        2.05731293803760       -0.16797898156080
H            2.78414289868684        0.39030885595581        1.27586127803924
H            2.16359160819886        1.93198440275595        0.67964290762296
H            2.41193882095778        1.27189578655724       -1.61195071168039
H            2.49096128611042       -0.44641585190060       -1.19046913475893
H            4.41818499871282        2.69889443784864       -1.32831761065271
H            6.83340216589043        2.83094082780582       -1.02632387679502
H            8.81348334589985        2.71826430578363        0.28133119689904
H            9.11108060847793        2.26344544628190       -1.42147148849787
H           10.16823549600055        1.63827215474471       -0.13187725044564
H            7.35980195140140       -3.36688717924563        0.78357857890228
H            5.81033693055916       -2.64448165492658        1.28062389427523
H            6.07040903602318       -3.12922336481515       -0.42105493174570
H            4.46072775217694       -1.40900029624511       -0.19221417350229
H            0.93841085153192       -1.64868027851020        0.00545541588395
H           -0.31171911992428       -1.30007945551365        1.21470042850764
H            1.38727737161609       -1.35741174750533        1.69428187461811
H           -4.14270632344082        2.63219526745949       -0.73969548348737
H           -3.66148890414380        2.20779091987960        2.23990991165840
H           -5.09773172823990        1.70951071310055        1.33440290366810
H           -4.75351245041021        3.42086056210886        1.56865670329781
H           -1.89578739342628        3.61248125155019        1.07413819621430
H           -1.86776724967843        3.73418209459337       -0.69005074171638
H           -3.08732955298382        4.59492032860791        0.23241927988747
H           -0.76286257610259        0.97896396861347        2.57081829811991
72
 energy: -99.428928626487 gnorm: 0.016854441688 xtb: 6.6.1 (8d0f1dd)
N           -1.63896022448880        1.02152092254293        2.05874935419300
C           -1.53854513716785        1.04862591860744        0.80935353591200
C           -2.73093573840894        1.13005408811704       -0.12042251510309
C           -3.70524652006064       -0.01138920030146        0.06630652552702
C           -4.79786224736317       -0.12445417674418       -0.75197920233474
C           -5.73405586854894       -1.16254433998541       -0.62405023853753
O           -6.83072084279627       -1.30700184085329       -1.36389821495152
C           -7.16775683073657       -0.34653854191874       -2.34077887589205
C           -5.52716220648624       -2.19524513735307        0.36227952011632
O           -6.44797545332824       -3.17899286605544        0.33313778340363
C           -6.33959753276368       -4.23078136138378        1.26655914522966
C           -4.45913069915519       -2.11254225608490        1.19734602275317
C           -3.49179624475478       -0.98709141544446        1.16547470928862
C           -2.10219065918452        1.05918526419438       -1.53784004482502
C           -0.72601882925126        0.42621223538775       -1.34852088616056
C           -0.25020617443094        1.01327856979116       -0.00906162105092
N            0.81529106486198        0.36160640866403        0.70267115780471
C            2.15506520470808        0.85053882692084        0.51209686799191
C            2.78340203496148        0.55625458885928       -0.87435854879786
C            4.27558508636762        0.63539736237538       -0.77027925023908
C            4.95649978197116        1.82122356135394       -1.00432070364075
C            6.32988777293431        1.89718294094759       -0.83494100647949
C            7.05478013071180        0.78783123246123       -0.41972422062019
O            8.38219212100236        0.74884826468574       -0.20756462853058
C            9.14614385188942        1.91866994046251       -0.38888741851173
C            6.36682431199975       -0.43641967000044       -0.18436699990146
O            7.14280263317872       -1.46525707979406        0.20809981036111
C            6.54948495164180       -2.71421706703133        0.47194566474839
C            4.99367545881099       -0.48661115342073       -0.36131994512658
C            0.70086976093694       -1.06183418327604        0.89989678341935
C           -3.47604513880371        2.48667170278722        0.11478199017568
C           -4.30262193751986        2.44982256402723        1.39671890698855
C           -2.51608160122547        3.67335485698885        0.17908209555402
H           -4.95409354071655        0.60686960134414       -1.53119970896146
H           -7.29488138937854        0.64488877970106       -1.89716589315321
H           -8.11501643161003       -0.67867575474671       -2.76112743410568
H           -6.41627133314428       -0.30245020623625       -3.13406901096270
H           -6.38399751294707       -3.85738888534024        2.29380630746612
H           -7.19316536710109       -4.87849004864481        1.07873031620411
H           -5.41471424259280       -4.79728004747926        1.12286722243722
H           -4.26981105951531       -2.87063196987844        1.93813767539421
H           -3.54152753212718       -0.43153601940084        2.11949263696242
H           -2.71420598717544        0.47643874313841       -2.22325640943924
H           -1.99503147101160        2.06057766209868       -1.95304625715850
H           -0.81943704561331       -0.65746518503600       -1.26829568408091
H           -0.04949077751681        0.65618632213912       -2.16983087508733
H           -2.48284317242047       -1.37111445371742        1.14374039225252
H            0.05269977937708        2.05557350807053       -0.16689220905720
H            2.78100256732134        0.38800894134886        1.27997387291805
H            2.16074503341781        1.92989241207785        0.68388713166326
H            2.41200816341502        1.27237126794144       -1.60758227460029
H            2.49056277757931       -0.44655624807824       -1.18856802539419
H            4.41629038038905        2.69819407180043       -1.32598606369850
H            6.83143623637752        2.83155371724413       -1.02694636228498
H            8.81391337264622        2.72044464808279        0.27746752415132
H            9.10792936798988        2.26525312447254       -1.42585519078502
H           10.16827962608240        1.64099452610664       -0.13840682897088
H            7.36457918640286       -3.36667434777063        0.77900742127467
H            5.81580619740173       -2.64672248181383        1.28159264429495
H            6.07183835630928       -3.12768734390209       -0.42177325597344
H            4.46191611926478       -1.40885383643741       -0.18636961876784
H            0.93884031914131       -1.65049043138645        0.00439269605874
H           -0.31395558771209       -1.30375887632697        1.21163420557160
H            1.38358896675706       -1.36123316238069        1.69494758296676
H           -4.14609178782281        2.63075051583844       -0.73896961116818
H           -3.66051896515797        2.20974061670059        2.24036696796671
H           -5.09815654895561        1.71186788772211        1.33744451931634
H           -4.75282299018680        3.42351837257498        1.57062518287064
H           -1.89624493168121        3.61461922201478        1.07024960863227
H           -1.87141195043389        3.73428961206954       -0.69415830922782
H           -3.08981681690659        4.59529181541479        0.22940332513172
H           -0.76100869065884        0.98846449362805        2.57081107918803
72
 energy: -99.429163275824 gnorm: 0.007325333746 xtb: 6.6.1 (8d0f1dd)
N           -1.63795889526289        1.02682207989744        2.05987605985816
C           -1.53846238535287        1.04935939578347        0.81033988040456
C           -2.73082369893820        1.13036963776700       -0.11931319845259
C           -3.70303051387179       -0.01326676277491        0.06678797381691
C           -4.79491924357420       -0.12527151666692       -0.75104976586415
C           -5.73158430984136       -1.16282806061660       -0.62612708554181
O           -6.82866993444110       -1.30530935543226       -1.36617830537399
C           -7.16490895991365       -0.34479604633474       -2.34338613369184
C           -5.52729369633420       -2.19416543334975        0.36181019388043
O           -6.45108360740729       -3.17484924924653        0.33467605139093
C           -6.34475012283992       -4.22822298329162        1.26641599449629
C           -4.46278690392447       -2.11123817246757        1.19993112017238
C           -3.48774358232703       -0.99343094201419        1.16094420992569
C           -2.10229711077042        1.05871678683149       -1.53672515555236
C           -0.72671772416649        0.42472738228500       -1.34720063168231
C           -0.25031781734165        1.01178661278328       -0.00819126684796
N            0.81417850980113        0.35904769317023        0.70415870367052
C            2.15398072719542        0.84858977547109        0.51566472652242
C            2.78307979011459        0.55564923568508       -0.87074047374291
C            4.27522531149675        0.63524272402420       -0.76658130903801
C            4.95540031383060        1.82125762412955       -1.00209660102957
C            6.32890725779351        1.89790542711095       -0.83414794848513
C            7.05486627400436        0.78887273001660       -0.41972708194413
O            8.38258203153766        0.75051588300862       -0.20976820393843
C            9.14564138538075        1.92064167954767       -0.39323842704853
C            6.36768060382970       -0.43559878870227       -0.18301317479703
O            7.14475257990596       -1.46407709926139        0.20820148299197
C            6.55277466735990       -2.71398223857122        0.47078880006778
C            4.99418459327129       -0.48629349281471       -0.35773003804259
C            0.69950942370525       -1.06450917671111        0.89951178305922
C           -3.47771792671452        2.48629939540749        0.11476250534663
C           -4.30276486126955        2.45020887491901        1.39769058614967
C           -2.51887616273434        3.67407146958209        0.17628819359018
H           -4.95325204222551        0.60968991040740       -1.52564700095330
H           -7.29162404427290        0.64700502505392       -1.90044106823341
H           -8.11254281648305       -0.67643323310632       -2.76346777708751
H           -6.41388804845580       -0.30158120167399       -3.13722732728679
H           -6.39068066770646       -3.85715177047229        2.29424906056329
H           -7.19812061041362       -4.87545066390673        1.07600793317292
H           -5.41981792148225       -4.79466116597101        1.12229852707666
H           -4.28253058484235       -2.86553266866068        1.94761166214843
H           -3.52156195289177       -0.44041516563816        2.11657396088164
H           -2.71490294329951        0.47623972527982       -2.22183873983644
H           -1.99469860772913        2.05993073094928       -1.95204274206210
H           -0.82142033161979       -0.65875137833381       -1.26661069366735
H           -0.05017910997561        0.65365424031910       -2.16875394507971
H           -2.46953890881290       -1.38847369869686        1.13184469041584
H            0.05378747712797        2.05365712160737       -0.16628615381347
H            2.77911268238264        0.38530694840362        1.28375230411440
H            2.15908190830011        1.92786538826082        0.68838913898940
H            2.41167173125928        1.27253797857946       -1.60331878419857
H            2.49048389230523       -0.44698211779987       -1.18595542741797
H            4.41443935118005        2.69790639706658       -1.32359965126996
H            6.82976744686225        2.83241352753041       -1.02737003228284
H            8.81447331788361        2.72247534553147        0.27353405315522
H            9.10504931866409        2.26686312454704       -1.43024061778021
H           10.16841075809404        1.64353031380565       -0.14484995341205
H            7.36906069958860       -3.36640833790401        0.77460107804158
H            5.82105266430449       -2.64868477651473        1.28234866501656
H            6.07328446660290       -3.12610311935878       -0.42258796895429
H            4.46291759597721       -1.40862880814176       -0.18140362487650
H            0.93919428049177       -1.65208853549320        0.00375122512315
H           -0.31596975039690       -1.30683302135824        1.20921874393680
H            1.38075826220519       -1.36463705363669        1.69554807974615
H           -4.14887495940810        2.62903644973351       -0.73831937670057
H           -3.65961091693938        2.21117190344134        2.24079293397459
H           -5.09797769518283        1.71174011366493        1.34016201943326
H           -4.75301074395938        3.42391737883136        1.57141218419673
H           -1.89771386910977        3.61681602054145        1.06659662288056
H           -1.87544905263237        3.73464055280406       -0.69789711893495
H           -3.09325867161838        4.59562963152968        0.22647678362477
H           -0.75946201898495        0.99868332209540        2.57131971569394
