      -----------------------------------------------------------      
     |                   =====================                   |     
     |                           x T B                           |     
     |                   =====================                   |     
     |                         S. Grimme                         |     
     |          Mulliken Center for Theoretical Chemistry        |     
     |                    University of Bonn                     |     
      -----------------------------------------------------------      

   * xtb version 6.6.1 (8d0f1dd) compiled by 'conda@1efc2f54142f' on 2023-08-01

   xtb is free software: you can redistribute it and/or modify it under
   the terms of the GNU Lesser General Public License as published by
   the Free Software Foundation, either version 3 of the License, or
   (at your option) any later version.
   
   xtb is distributed in the hope that it will be useful,
   but WITHOUT ANY WARRANTY; without even the implied warranty of
   MERCHANTABILITY or FITNESS FOR A PARTICULAR PURPOSE.  See the
   GNU Lesser General Public License for more details.
   
   Cite this work as:
   * C. Bannwarth, E. Caldeweyher, S. Ehlert, A. Hansen, P. Pracht,
     J. Seibert, S. Spicher, S. Grimme, WIREs Comput. Mol. Sci., 2020, 11,
     e01493. DOI: 10.1002/wcms.1493
   
   for GFN2-xTB:
   * C. Bannwarth, S. Ehlert and S. Grimme., J. Chem. Theory Comput., 2019,
     15, 1652-1671. DOI: 10.1021/acs.jctc.8b01176
   for GFN1-xTB:
   * S. Grimme, C. Bannwarth, P. Shushkov, J. Chem. Theory Comput., 2017,
     13, 1989-2009. DOI: 10.1021/acs.jctc.7b00118
   for GFN0-xTB:
   * P. Pracht, E. Caldeweyher, S. Ehlert, S. Grimme, ChemRxiv, 2019, preprint.
     DOI: 10.26434/chemrxiv.8326202.v1
   for GFN-FF:
   * S. Spicher and S. Grimme, Angew. Chem. Int. Ed., 2020, 59, 15665-15673.
     DOI: 10.1002/anie.202004239
   
   for ALPB and GBSA implicit solvation:
   * S. Ehlert, M. Stahn, S. Spicher, S. Grimme, J. Chem. Theory Comput.,
     2021, 17, 4250-4261. DOI: 10.1021/acs.jctc.1c00471
   
   for DFT-D4:
   * E. Caldeweyher, C. Bannwarth and S. Grimme, J. Chem. Phys., 2017,
     147, 034112. DOI: 10.1063/1.4993215
   * E. Caldeweyher, S. Ehlert, A. Hansen, H. Neugebauer, S. Spicher,
     C. Bannwarth and S. Grimme, J. Chem. Phys., 2019, 150, 154122.
     DOI: 10.1063/1.5090222
   * E. Caldeweyher, J.-M. Mewes, S. Ehlert and S. Grimme, Phys. Chem. Chem. Phys.
     2020, 22, 8499-8512. DOI: 10.1039/D0CP00502A
   
   for sTDA-xTB:
   * S. Grimme and C. Bannwarth, J. Chem. Phys., 2016, 145, 054103.
     DOI: 10.1063/1.4959605
   
   in the mass-spec context:
   * V. Asgeirsson, C. Bauer and S. Grimme, Chem. Sci., 2017, 8, 4879.
     DOI: 10.1039/c7sc00601b
   * J. Koopman and S. Grimme, ACS Omega 2019, 4, 12, 15120-15133.
     DOI: 10.1021/acsomega.9b02011
   
   for metadynamics refer to:
   * S. Grimme, J. Chem. Theory Comput., 2019, 155, 2847-2862
     DOI: 10.1021/acs.jctc.9b00143
   
   for SPH calculations refer to:
   * S. Spicher and S. Grimme, J. Chem. Theory Comput., 2021, 17, 1701-1714
     DOI: 10.1021/acs.jctc.0c01306
   
   with help from (in alphabetical order)
   P. Atkinson, C. Bannwarth, F. Bohle, G. Brandenburg, E. Caldeweyher
   M. Checinski, S. Dohm, S. Ehlert, S. Ehrlich, I. Gerasimov, C. Hölzer
   A. Katbashev, J. Koopman, C. Lavigne, S. Lehtola, F. März, M. Müller,
   F. Musil, H. Neugebauer, J. Pisarek, C. Plett, P. Pracht, F. Pultar,
   J. Seibert, P. Shushkov, S. Spicher, M. Stahn, M. Steiner, T. Strunk,
   J. Stückrath, T. Rose, and J. Unsleber
   
 * started run on 2024/06/05 at 19:59:14.207     

           -------------------------------------------------
          |                Calculation Setup                |
           -------------------------------------------------

          program call               : xtb struc.xyz --opt loose --input .xc1 --gfn2
          hostname                   : n-62-31-11
          coordinate file            : struc.xyz
          omp threads                :                     1

   ID    Z sym.   atoms
    1    6 C      1, 3, 5-7, 10, 11, 14
    2    7 N      2, 4, 9, 13
    3    8 O      8, 12
    4    1 H      15-25
constraining bond 7 12 to    5.7600000 Å, actual value:    3.5721419 Å

           -------------------------------------------------
          |                 G F N 2 - x T B                 |
           -------------------------------------------------

        Reference                      10.1021/acs.jctc.8b01176
      * Hamiltonian:
        H0-scaling (s, p, d)           1.850000    2.230000    2.230000
        zeta-weighting                 0.500000
      * Dispersion:
        s8                             2.700000
        a1                             0.520000
        a2                             5.000000
        s9                             5.000000
      * Repulsion:
        kExp                           1.500000    1.000000
        rExp                           1.000000
      * Coulomb:
        alpha                          2.000000
        third order                    shell-resolved
        anisotropic                    true
        a3                             3.000000
        a5                             4.000000
        cn-shift                       1.200000
        cn-exp                         4.000000
        max-rad                        5.000000


          ...................................................
          :                      SETUP                      :
          :.................................................:
          :  # basis functions                  67          :
          :  # atomic orbitals                  67          :
          :  # shells                           39          :
          :  # electrons                        74          :
          :  max. iterations                   250          :
          :  Hamiltonian                  GFN2-xTB          :
          :  restarted?                      false          :
          :  GBSA solvation                  false          :
          :  PC potential                    false          :
          :  electronic temp.         5000.0000000     K    :
          :  accuracy                    1.0000000          :
          :  -> integral cutoff          0.2500000E+02      :
          :  -> integral neglect         0.1000000E-07      :
          :  -> SCF convergence          0.1000000E-05 Eh   :
          :  -> wf. convergence          0.1000000E-03 e    :
          :  Broyden damping             0.4000000          :
          ...................................................

 iter      E             dE          RMSdq      gap      omega  full diag
   1    -42.5894031 -0.425894E+02  0.445E+00    3.52       0.0  T
   2    -42.7683054 -0.178902E+00  0.251E+00    3.36       1.0  T
   3    -42.7759211 -0.761567E-02  0.147E+00    3.35       1.0  T
   4    -42.7728404  0.308066E-02  0.553E-01    3.33       1.0  T
   5    -42.7789548 -0.611444E-02  0.112E-01    3.35       1.0  T
   6    -42.7790473 -0.924914E-04  0.614E-02    3.33       1.0  T
   7    -42.7790721 -0.247928E-04  0.258E-02    3.34       1.0  T
   8    -42.7790772 -0.508996E-05  0.938E-03    3.34       2.1  T
   9    -42.7790779 -0.669422E-06  0.448E-03    3.34       4.5  T
  10    -42.7790780 -0.821510E-07  0.115E-03    3.34      17.4  T
  11    -42.7790780 -0.322663E-08  0.553E-04    3.34      36.2  T
  12    -42.7790780 -0.287051E-08  0.180E-04    3.34     111.1  T

   *** convergence criteria satisfied after 12 iterations ***

         #    Occupation            Energy/Eh            Energy/eV
      -------------------------------------------------------------
         1        2.0000           -0.9185990             -24.9964
       ...           ...                  ...                  ...
        31        1.9996           -0.6230278             -16.9534
        32        1.9995           -0.6194601             -16.8564
        33        1.9979           -0.5974976             -16.2587
        34        1.9932           -0.5789629             -15.7544
        35        1.9817           -0.5631863             -15.3251
        36        1.9779           -0.5602245             -15.2445
        37        1.9748           -0.5581234             -15.1873 (HOMO)
        38        0.0652           -0.4353579             -11.8467 (LUMO)
        39        0.0099           -0.4050467             -11.0219
        40        0.0013           -0.3732218             -10.1559
        41        0.0000           -0.2886859              -7.8555
        42                         -0.2065804              -5.6213
       ...                                ...                  ...
        67                          0.5625656              15.3082
      -------------------------------------------------------------
                  HL-Gap            0.1227656 Eh            3.3406 eV
             Fermi-level           -0.4890455 Eh          -13.3076 eV

 SCC (total)                   0 d,  0 h,  0 min,  0.038 sec
 SCC setup                      ...        0 min,  0.000 sec (  0.790%)
 Dispersion                     ...        0 min,  0.000 sec (  0.874%)
 classical contributions        ...        0 min,  0.000 sec (  0.249%)
 integral evaluation            ...        0 min,  0.006 sec ( 14.964%)
 iterations                     ...        0 min,  0.017 sec ( 46.109%)
 molecular gradient             ...        0 min,  0.014 sec ( 36.601%)
 printout                       ...        0 min,  0.000 sec (  0.381%)

         :::::::::::::::::::::::::::::::::::::::::::::::::::::
         ::                     SUMMARY                     ::
         :::::::::::::::::::::::::::::::::::::::::::::::::::::
         :: total energy             -25.154163666409 Eh    ::
         :: gradient norm             11.695077034534 Eh/a0 ::
         :: HOMO-LUMO gap              3.340621582928 eV    ::
         ::.................................................::
         :: SCC energy               -42.779077977399 Eh    ::
         :: -> isotropic ES            0.141123876439 Eh    ::
         :: -> anisotropic ES         -0.005230418907 Eh    ::
         :: -> anisotropic XC          0.011966818540 Eh    ::
         :: -> dispersion             -0.022657731803 Eh    ::
         :: repulsion energy           0.531105277918 Eh    ::
         :: add. restraining          17.093694874062 Eh    ::
         :: total charge               1.000000000002 e     ::
         :::::::::::::::::::::::::::::::::::::::::::::::::::::

      ----------------------------------------------------------- 
     |                   =====================                   |
     |                        A N C O P T                        |
     |                   =====================                   |
     |               Approximate Normal Coordinate               |
     |                Rational Function Optimizer                |
      ----------------------------------------------------------- 

          ...................................................
          :                      SETUP                      :
          :.................................................:
          :   optimization level             loose          :
          :   max. optcycles                   200          :
          :   ANC micro-cycles                  20          :
          :   degrees of freedom                69          :
          :.................................................:
          :   RF solver                   davidson          :
          :   write xtbopt.log                true          :
          :   linear?                        false          :
          :   energy convergence         0.5000000E-04 Eh   :
          :   grad. convergence          0.4000000E-02 Eh/α :
          :   maxmium RF displ.          1.0000000          :
          :   Hlow (freq-cutoff)         0.1000000E-01      :
          :   Hmax (freq-cutoff)         5.0000000          :
          :   S6 in model hess.         20.0000000          :
          ...................................................

generating ANC from model Hessian ...
Using Lindh-Hessian (1995)
 Shifting diagonal of input Hessian by    2.2400138613767249     
 Lowest  eigenvalues of input Hessian
    0.010000    0.439301    0.000000    0.000000    0.000000    0.000000
    0.000000    0.000000    2.242797    2.244616    2.249101    2.249515
    2.249927    2.251667    2.251815    2.257330    2.263833    2.265329
 Highest eigenvalues
    4.353955    4.418328    4.455452    4.486189    4.610551    7.641541


........................................................................
.............................. CYCLE    1 ..............................
........................................................................

 iter      E             dE          RMSdq      gap      omega  full diag
   1    -42.7790780 -0.427791E+02  0.626E-05    3.34       0.0  T
   2    -42.7790780 -0.124416E-10  0.329E-05    3.34     607.4  T
   3    -42.7790780  0.127898E-12  0.193E-05    3.34    1034.2  T
     SCC iter.                  ...        0 min,  0.005 sec
     gradient                   ...        0 min,  0.014 sec
 * total energy  :   -25.1541637 Eh     change       -0.6650680E-10 Eh
   gradient norm :    11.6950768 Eh/α   predicted     0.0000000E+00 (-100.00%)
   displ. norm   :     0.8122068 α      lambda       -0.9495620E+01
   maximum displ.:     0.7804533 α      in ANC's #69, #60, #55, ...

........................................................................
.............................. CYCLE    2 ..............................
........................................................................

 iter      E             dE          RMSdq      gap      omega  full diag
   1    -42.6053723 -0.426054E+02  0.184E+00    3.20       0.0  T
   2    -42.6600979 -0.547256E-01  0.122E+00    1.66       1.0  T
   3    -42.6788812 -0.187834E-01  0.682E-01    2.95       1.0  T
   4    -42.6839452 -0.506395E-02  0.502E-01    2.13       1.0  T
   5    -42.6863912 -0.244605E-02  0.219E-01    2.32       1.0  T
   6    -42.6872201 -0.828832E-03  0.680E-02    2.35       1.0  T
   7    -42.6873250 -0.104935E-03  0.200E-02    2.40       1.0  T
   8    -42.6873276 -0.257257E-05  0.101E-02    2.41       2.0  T
   9    -42.6873283 -0.775285E-06  0.473E-03    2.41       4.2  T
  10    -42.6873286 -0.223865E-06  0.201E-03    2.41      10.0  T
  11    -42.6873286 -0.134064E-07  0.983E-04    2.40      20.3  T
  12    -42.6873286 -0.174953E-07  0.259E-04    2.41      77.4  T
     SCC iter.                  ...        0 min,  0.016 sec
     gradient                   ...        0 min,  0.013 sec
 * total energy  :   -33.1525301 Eh     change       -0.7998366E+01 Eh
   gradient norm :     8.0602835 Eh/α   predicted    -0.7879844E+01 (  -1.48%)
   displ. norm   :     0.7750490 α      lambda       -0.6213831E+01
   maximum displ.:     0.7117747 α      in ANC's #69, #60, #58, ...

........................................................................
.............................. CYCLE    3 ..............................
........................................................................

 iter      E             dE          RMSdq      gap      omega  full diag
   1    -42.5241744 -0.425242E+02  0.152E+00    2.10       0.0  T
   2    -42.5319361 -0.776176E-02  0.103E+00    1.38       1.0  T
   3    -42.5395514 -0.761528E-02  0.767E-01    2.26       1.0  T
   4    -42.5408184 -0.126699E-02  0.696E-01    1.39       1.0  T
   5    -42.5538548 -0.130364E-01  0.307E-01    1.91       1.0  T
   6    -42.5565571 -0.270230E-02  0.609E-02    1.73       1.0  T
   7    -42.5566279 -0.708282E-04  0.234E-02    1.75       1.0  T
   8    -42.5566302 -0.222560E-05  0.125E-02    1.75       1.6  T
   9    -42.5566315 -0.128959E-05  0.670E-03    1.75       3.0  T
  10    -42.5566320 -0.488538E-06  0.329E-03    1.75       6.1  T
  11    -42.5566320 -0.388192E-07  0.148E-03    1.75      13.5  T
  12    -42.5566320 -0.227706E-07  0.583E-04    1.75      34.3  T
  13    -42.5566320 -0.360522E-09  0.228E-04    1.75      87.8  T
     SCC iter.                  ...        0 min,  0.017 sec
     gradient                   ...        0 min,  0.013 sec
 * total energy  :   -38.2344696 Eh     change       -0.5081939E+01 Eh
   gradient norm :     5.1308471 Eh/α   predicted    -0.4973243E+01 (  -2.14%)
   displ. norm   :     0.7299784 α      lambda       -0.3688415E+01
   maximum displ.:     0.6259575 α      in ANC's #69, #60, #58, ...

........................................................................
.............................. CYCLE    4 ..............................
........................................................................

 iter      E             dE          RMSdq      gap      omega  full diag
   1    -42.0457255 -0.420457E+02  0.290E+00    0.47       0.0  T
   2    -41.7204243  0.325301E+00  0.419E+00    2.01       1.0  T
   3    -42.2569016 -0.536477E+00  0.206E+00    2.73       1.0  T
   4    -42.3685274 -0.111626E+00  0.102E+00    1.89       1.0  T
   5    -42.4022285 -0.337011E-01  0.489E-01    1.57       1.0  T
   6    -42.4074378 -0.520931E-02  0.183E-01    1.47       1.0  T
   7    -42.4049981  0.243973E-02  0.266E-01    1.28       1.0  T
   8    -42.4082518 -0.325370E-02  0.476E-02    1.42       1.0  T
   9    -42.4080128  0.239029E-03  0.819E-02    1.37       1.0  T
  10    -42.4082930 -0.280276E-03  0.226E-02    1.40       1.0  T
  11    -42.4083125 -0.194391E-04  0.459E-03    1.41       4.4  T
  12    -42.4083122  0.279518E-06  0.402E-03    1.42       5.0  T
  13    -42.4083127 -0.544571E-06  0.997E-04    1.41      20.1  T
  14    -42.4083128 -0.208025E-07  0.422E-04    1.41      47.4  T
     SCC iter.                  ...        0 min,  0.018 sec
     gradient                   ...        0 min,  0.013 sec
 * total energy  :   -40.9830865 Eh     change       -0.2748617E+01 Eh
   gradient norm :     2.5405663 Eh/α   predicted    -0.2826935E+01 (   2.85%)
   displ. norm   :     0.5130414 α      lambda       -0.1299450E+01
   maximum displ.:     0.4815490 α      in ANC's #69, #60, #58, ...

........................................................................
.............................. CYCLE    5 ..............................
........................................................................

 iter      E             dE          RMSdq      gap      omega  full diag
   1    -42.1986263 -0.421986E+02  0.177E+00    0.61       0.0  T
   2    -41.6886789  0.509947E+00  0.367E+00    1.83       1.0  T
   3    -42.2687159 -0.580037E+00  0.117E+00    1.72       1.0  T
   4    -42.3279441 -0.592283E-01  0.307E-01    1.27       1.0  T
   5    -42.3196910  0.825314E-02  0.462E-01    1.04       1.0  T
   6    -42.3288903 -0.919925E-02  0.132E-01    1.21       1.0  T
   7    -42.3294136 -0.523359E-03  0.447E-02    1.23       1.0  T
   8    -42.3294814 -0.677707E-04  0.225E-02    1.21       1.0  T
   9    -42.3294932 -0.118513E-04  0.174E-02    1.22       1.1  T
  10    -42.3295067 -0.135047E-04  0.341E-03    1.21       5.9  T
  11    -42.3295069 -0.133832E-06  0.196E-03    1.21      10.2  T
  12    -42.3295069 -0.598638E-07  0.108E-03    1.21      18.6  T
  13    -42.3295070 -0.374696E-07  0.365E-04    1.21      54.7  T
  14    -42.3295070 -0.372118E-08  0.102E-04    1.21     195.4  T
     SCC iter.                  ...        0 min,  0.018 sec
     gradient                   ...        0 min,  0.013 sec
 * total energy  :   -41.7827580 Eh     change       -0.7996715E+00 Eh
   gradient norm :     0.5868730 Eh/α   predicted    -0.8207705E+00 (   2.64%)
   displ. norm   :     0.1654531 α      lambda       -0.9491058E-01
   maximum displ.:     0.1414866 α      in ANC's #69, #45, #58, ...

........................................................................
.............................. CYCLE    6 ..............................
........................................................................

 iter      E             dE          RMSdq      gap      omega  full diag
   1    -42.3064262 -0.423064E+02  0.552E-01    0.89       0.0  T
   2    -42.1416714  0.164755E+00  0.178E+00    1.85       1.0  T
   3    -42.3148036 -0.173132E+00  0.351E-01    1.07       1.0  T
   4    -42.3181667 -0.336310E-02  0.183E-01    1.11       1.0  T
   5    -42.3188499 -0.683201E-03  0.897E-02    1.11       1.0  T
   6    -42.3188709 -0.210345E-04  0.695E-02    1.06       1.0  T
   7    -42.3190968 -0.225925E-03  0.189E-02    1.08       1.1  T
   8    -42.3191132 -0.163593E-04  0.454E-03    1.09       4.4  T
   9    -42.3191135 -0.277802E-06  0.317E-03    1.09       6.3  T
  10    -42.3191138 -0.371631E-06  0.120E-03    1.09      16.6  T
  11    -42.3191139 -0.628937E-07  0.390E-04    1.09      51.3  T
  12    -42.3191139 -0.408937E-08  0.144E-04    1.09     139.1  T
     SCC iter.                  ...        0 min,  0.016 sec
     gradient                   ...        0 min,  0.013 sec
 * total energy  :   -41.8352403 Eh     change       -0.5248225E-01 Eh
   gradient norm :     0.1686921 Eh/α   predicted    -0.4877213E-01 (  -7.07%)
   displ. norm   :     0.0821834 α      lambda       -0.1081338E-01
   maximum displ.:     0.0466302 α      in ANC's #2, #45, #60, ...

........................................................................
.............................. CYCLE    7 ..............................
........................................................................

 iter      E             dE          RMSdq      gap      omega  full diag
   1    -42.3316080 -0.423316E+02  0.194E-01    1.08       0.0  T
   2    -42.3203207  0.112873E-01  0.527E-01    0.94       1.0  T
   3    -42.3278281 -0.750744E-02  0.296E-01    1.19       1.0  T
   4    -42.3325302 -0.470212E-02  0.645E-02    1.06       1.0  T
   5    -42.3325571 -0.268878E-04  0.442E-02    1.08       1.0  T
   6    -42.3326187 -0.615673E-04  0.114E-02    1.07       1.8  T
   7    -42.3326237 -0.502275E-05  0.351E-03    1.07       5.7  T
   8    -42.3326239 -0.180965E-06  0.153E-03    1.07      13.1  T
   9    -42.3326239 -0.131310E-07  0.659E-04    1.07      30.4  T
  10    -42.3326239 -0.132066E-07  0.237E-04    1.07      84.4  T
     SCC iter.                  ...        0 min,  0.013 sec
     gradient                   ...        0 min,  0.013 sec
 * total energy  :   -41.8447743 Eh     change       -0.9534078E-02 Eh
   gradient norm :     0.1640400 Eh/α   predicted    -0.5443414E-02 ( -42.91%)
   displ. norm   :     0.3157949 α      lambda       -0.3892751E-01
   maximum displ.:     0.1573356 α      in ANC's #2, #45, #60, ...

........................................................................
.............................. CYCLE    8 ..............................
........................................................................

 iter      E             dE          RMSdq      gap      omega  full diag
   1    -42.3675346 -0.423675E+02  0.824E-01    1.00       0.0  T
   2    -42.3006184  0.669162E-01  0.149E+00    0.84       1.0  T
   3    -42.3068231 -0.620471E-02  0.123E+00    1.55       1.0  T
   4    -42.3827750 -0.759519E-01  0.278E-01    0.98       1.0  T
   5    -42.3830225 -0.247478E-03  0.214E-01    1.11       1.0  T
   6    -42.3845553 -0.153281E-02  0.861E-02    1.01       1.0  T
   7    -42.3848774 -0.322120E-03  0.244E-02    1.04       1.0  T
   8    -42.3848968 -0.194070E-04  0.733E-03    1.04       2.7  T
   9    -42.3848966  0.222834E-06  0.663E-03    1.04       3.0  T
  10    -42.3848986 -0.200786E-05  0.108E-03    1.04      18.6  T
  11    -42.3848986 -0.438496E-07  0.420E-04    1.04      47.6  T
  12    -42.3848986 -0.546721E-08  0.230E-04    1.04      86.9  T
     SCC iter.                  ...        0 min,  0.016 sec
     gradient                   ...        0 min,  0.013 sec
 * total energy  :   -41.8680072 Eh     change       -0.2323285E-01 Eh
   gradient norm :     0.1667489 Eh/α   predicted    -0.2140484E-01 (  -7.87%)
   displ. norm   :     0.1217482 α      lambda       -0.8071597E-02
   maximum displ.:     0.0576545 α      in ANC's #2, #1, #45, ...

........................................................................
.............................. CYCLE    9 ..............................
........................................................................

 iter      E             dE          RMSdq      gap      omega  full diag
   1    -42.3967857 -0.423968E+02  0.218E-01    1.03       0.0  T
   2    -42.3947723  0.201341E-02  0.282E-01    1.00       1.0  T
   3    -42.3923266  0.244577E-02  0.328E-01    1.16       1.0  T
   4    -42.3967980 -0.447149E-02  0.126E-01    1.00       1.0  T
   5    -42.3974140 -0.615968E-03  0.601E-02    1.06       1.0  T
   6    -42.3975598 -0.145748E-03  0.788E-03    1.04       2.5  T
   7    -42.3975613 -0.152672E-05  0.306E-03    1.04       6.5  T
   8    -42.3975613 -0.448957E-07  0.163E-03    1.04      12.2  T
   9    -42.3975614 -0.466828E-07  0.353E-04    1.04      56.6  T
  10    -42.3975614 -0.142691E-08  0.190E-04    1.04     105.2  T
     SCC iter.                  ...        0 min,  0.014 sec
     gradient                   ...        0 min,  0.013 sec
 * total energy  :   -41.8746727 Eh     change       -0.6665468E-02 Eh
   gradient norm :     0.1320716 Eh/α   predicted    -0.4095734E-02 ( -38.55%)
   displ. norm   :     0.2464414 α      lambda       -0.1644908E-01
   maximum displ.:     0.1284841 α      in ANC's #2, #17, #61, ...

........................................................................
.............................. CYCLE   10 ..............................
........................................................................

 iter      E             dE          RMSdq      gap      omega  full diag
   1    -42.4085583 -0.424086E+02  0.340E-01    0.92       0.0  T
   2    -42.3959802  0.125781E-01  0.533E-01    1.16       1.0  T
   3    -42.3980183 -0.203817E-02  0.485E-01    0.80       1.0  T
   4    -42.4085641 -0.105457E-01  0.189E-01    0.99       1.0  T
   5    -42.4092289 -0.664808E-03  0.818E-02    0.98       1.0  T
   6    -42.4095238 -0.294900E-03  0.140E-02    0.97       1.4  T
   7    -42.4095287 -0.487087E-05  0.533E-03    0.96       3.8  T
   8    -42.4095287 -0.170201E-07  0.308E-03    0.96       6.5  T
   9    -42.4095289 -0.173342E-06  0.812E-04    0.96      24.6  T
  10    -42.4095289 -0.107309E-07  0.376E-04    0.96      53.1  T
     SCC iter.                  ...        0 min,  0.013 sec
     gradient                   ...        0 min,  0.013 sec
 * total energy  :   -41.8852440 Eh     change       -0.1057134E-01 Eh
   gradient norm :     0.1038842 Eh/α   predicted    -0.8724163E-02 ( -17.47%)
   displ. norm   :     0.1879594 α      lambda       -0.5595270E-02
   maximum displ.:     0.0961936 α      in ANC's #2, #1, #17, ...

........................................................................
.............................. CYCLE   11 ..............................
........................................................................

 iter      E             dE          RMSdq      gap      omega  full diag
   1    -42.4113861 -0.424114E+02  0.196E-01    0.87       0.0  T
   2    -42.4070501  0.433602E-02  0.316E-01    1.00       1.0  T
   3    -42.4086586 -0.160845E-02  0.251E-01    0.81       1.0  T
   4    -42.4114568 -0.279826E-02  0.883E-02    0.90       1.0  T
   5    -42.4115878 -0.130974E-03  0.349E-02    0.90       1.0  T
   6    -42.4116429 -0.550964E-04  0.823E-03    0.89       2.4  T
   7    -42.4116448 -0.194261E-05  0.295E-03    0.89       6.8  T
   8    -42.4116448  0.904078E-08  0.155E-03    0.89      12.9  T
   9    -42.4116449 -0.551699E-07  0.430E-04    0.89      46.5  T
  10    -42.4116449 -0.175626E-08  0.243E-04    0.89      82.4  T
     SCC iter.                  ...        0 min,  0.013 sec
     gradient                   ...        0 min,  0.013 sec
 * total energy  :   -41.8894407 Eh     change       -0.4196718E-02 Eh
   gradient norm :     0.0960334 Eh/α   predicted    -0.2896503E-02 ( -30.98%)
   displ. norm   :     0.1864801 α      lambda       -0.5966846E-02
   maximum displ.:     0.1060270 α      in ANC's #2, #17, #1, ...

........................................................................
.............................. CYCLE   12 ..............................
........................................................................

 iter      E             dE          RMSdq      gap      omega  full diag
   1    -42.4105478 -0.424105E+02  0.162E-01    0.85       0.0  T
   2    -42.4105371  0.107376E-04  0.107E-01    0.86       1.0  T
   3    -42.4100096  0.527445E-03  0.129E-01    0.81       1.0  T
   4    -42.4075068  0.250285E-02  0.245E-01    0.94       1.0  T
   5    -42.4105854 -0.307869E-02  0.348E-02    0.84       1.0  T
   6    -42.4106467 -0.612286E-04  0.832E-03    0.85       2.4  T
   7    -42.4106485 -0.181936E-05  0.303E-03    0.85       6.6  T
   8    -42.4106485 -0.299531E-07  0.141E-03    0.85      14.2  T
   9    -42.4106486 -0.544079E-07  0.457E-04    0.85      43.8  T
  10    -42.4106486 -0.296587E-08  0.238E-04    0.85      83.9  T
     SCC iter.                  ...        0 min,  0.014 sec
     gradient                   ...        0 min,  0.013 sec
 * total energy  :   -41.8937970 Eh     change       -0.4356255E-02 Eh
   gradient norm :     0.0838696 Eh/α   predicted    -0.3087177E-02 ( -29.13%)
   displ. norm   :     0.2322603 α      lambda       -0.6339419E-02
   maximum displ.:     0.1386208 α      in ANC's #1, #2, #17, ...

........................................................................
.............................. CYCLE   13 ..............................
........................................................................

 iter      E             dE          RMSdq      gap      omega  full diag
   1    -42.4101746 -0.424102E+02  0.208E-01    0.90       0.0  T
   2    -42.3980875  0.120871E-01  0.483E-01    0.71       1.0  T
   3    -42.4065426 -0.845516E-02  0.308E-01    0.98       1.0  T
   4    -42.4103480 -0.380541E-02  0.112E-01    0.89       1.0  T
   5    -42.4107267 -0.378722E-03  0.365E-02    0.88       1.0  T
   6    -42.4107612 -0.344158E-04  0.103E-02    0.87       1.9  T
   7    -42.4107634 -0.226595E-05  0.380E-03    0.87       5.3  T
   8    -42.4107637 -0.278360E-06  0.180E-03    0.87      11.1  T
   9    -42.4107637 -0.402116E-07  0.653E-04    0.87      30.6  T
  10    -42.4107637 -0.121116E-07  0.260E-04    0.87      77.1  T
     SCC iter.                  ...        0 min,  0.013 sec
     gradient                   ...        0 min,  0.013 sec
 * total energy  :   -41.8985163 Eh     change       -0.4719364E-02 Eh
   gradient norm :     0.0919090 Eh/α   predicted    -0.3341155E-02 ( -29.20%)
   displ. norm   :     0.1934957 α      lambda       -0.6766945E-02
   maximum displ.:     0.0905317 α      in ANC's #17, #2, #33, ...

........................................................................
.............................. CYCLE   14 ..............................
........................................................................

 iter      E             dE          RMSdq      gap      omega  full diag
   1    -42.4105582 -0.424106E+02  0.182E-01    0.87       0.0  T
   2    -42.4057372  0.482099E-02  0.338E-01    0.99       1.0  T
   3    -42.4080681 -0.233092E-02  0.241E-01    0.79       1.0  T
   4    -42.4105005 -0.243232E-02  0.983E-02    0.91       1.0  T
   5    -42.4108813 -0.380798E-03  0.206E-02    0.88       1.0  T
   6    -42.4108903 -0.907383E-05  0.779E-03    0.88       2.6  T
   7    -42.4108910 -0.638568E-06  0.529E-03    0.88       3.8  T
   8    -42.4108920 -0.104870E-05  0.203E-03    0.88       9.8  T
   9    -42.4108921 -0.824930E-07  0.448E-04    0.88      44.6  T
  10    -42.4108921 -0.344175E-08  0.184E-04    0.88     108.9  T
     SCC iter.                  ...        0 min,  0.013 sec
     gradient                   ...        0 min,  0.013 sec
 * total energy  :   -41.9033359 Eh     change       -0.4819583E-02 Eh
   gradient norm :     0.1036699 Eh/α   predicted    -0.3510169E-02 ( -27.17%)
   displ. norm   :     0.1667539 α      lambda       -0.5639279E-02
   maximum displ.:     0.0800348 α      in ANC's #17, #33, #12, ...

........................................................................
.............................. CYCLE   15 ..............................
........................................................................

 iter      E             dE          RMSdq      gap      omega  full diag
   1    -42.4159457 -0.424159E+02  0.177E-01    0.92       0.0  T
   2    -42.4134055  0.254018E-02  0.245E-01    0.81       1.0  T
   3    -42.4116184  0.178708E-02  0.307E-01    1.01       1.0  T
   4    -42.4161197 -0.450126E-02  0.557E-02    0.90       1.0  T
   5    -42.4161388 -0.191086E-04  0.242E-02    0.90       1.0  T
   6    -42.4161561 -0.172654E-04  0.871E-03    0.90       2.3  T
   7    -42.4161579 -0.188115E-05  0.383E-03    0.90       5.2  T
   8    -42.4161583 -0.363175E-06  0.182E-03    0.90      11.0  T
   9    -42.4161584 -0.103518E-06  0.565E-04    0.90      35.4  T
  10    -42.4161584 -0.101208E-07  0.193E-04    0.90     103.5  T
     SCC iter.                  ...        0 min,  0.014 sec
     gradient                   ...        0 min,  0.013 sec
 * total energy  :   -41.9075575 Eh     change       -0.4221560E-02 Eh
   gradient norm :     0.0944543 Eh/α   predicted    -0.2898151E-02 ( -31.35%)
   displ. norm   :     0.1850247 α      lambda       -0.5979528E-02
   maximum displ.:     0.0909750 α      in ANC's #17, #33, #12, ...

........................................................................
.............................. CYCLE   16 ..............................
........................................................................

 iter      E             dE          RMSdq      gap      omega  full diag
   1    -42.4261466 -0.424261E+02  0.215E-01    0.94       0.0  T
   2    -42.4046806  0.214660E-01  0.665E-01    0.68       1.0  T
   3    -42.4257014 -0.210207E-01  0.176E-01    0.96       1.0  T
   4    -42.4267655 -0.106411E-02  0.615E-02    0.90       1.0  T
   5    -42.4268000 -0.344745E-04  0.276E-02    0.91       1.0  T
   6    -42.4268287 -0.286953E-04  0.967E-03    0.90       2.1  T
   7    -42.4268325 -0.382792E-05  0.344E-03    0.90       5.8  T
   8    -42.4268326 -0.123486E-06  0.141E-03    0.91      14.2  T
   9    -42.4268326 -0.353612E-07  0.552E-04    0.90      36.2  T
  10    -42.4268327 -0.641067E-08  0.204E-04    0.91      97.9  T
     SCC iter.                  ...        0 min,  0.013 sec
     gradient                   ...        0 min,  0.013 sec
 * total energy  :   -41.9118239 Eh     change       -0.4266398E-02 Eh
   gradient norm :     0.0815061 Eh/α   predicted    -0.3092126E-02 ( -27.52%)
   displ. norm   :     0.1915079 α      lambda       -0.4902344E-02
   maximum displ.:     0.0902492 α      in ANC's #17, #1, #2, ...

........................................................................
.............................. CYCLE   17 ..............................
........................................................................

 iter      E             dE          RMSdq      gap      omega  full diag
   1    -42.4365811 -0.424366E+02  0.224E-01    0.96       0.0  T
   2    -42.3974239  0.391572E-01  0.892E-01    0.61       1.0  T
   3    -42.4367336 -0.393097E-01  0.163E-01    0.96       1.0  T
   4    -42.4376592 -0.925568E-03  0.623E-02    0.90       1.0  T
   5    -42.4377176 -0.584605E-04  0.130E-02    0.91       1.5  T
   6    -42.4377211 -0.350518E-05  0.586E-03    0.91       3.4  T
   7    -42.4377217 -0.596293E-06  0.277E-03    0.91       7.2  T
   8    -42.4377219 -0.131366E-06  0.148E-03    0.91      13.5  T
   9    -42.4377219 -0.514380E-07  0.481E-04    0.91      41.6  T
  10    -42.4377219 -0.264515E-08  0.262E-04    0.91      76.3  T
     SCC iter.                  ...        0 min,  0.013 sec
     gradient                   ...        0 min,  0.013 sec
 * total energy  :   -41.9154963 Eh     change       -0.3672374E-02 Eh
   gradient norm :     0.0891192 Eh/α   predicted    -0.2541131E-02 ( -30.80%)
   displ. norm   :     0.2377817 α      lambda       -0.5944856E-02
   maximum displ.:     0.1150257 α      in ANC's #17, #2, #5, ...

........................................................................
.............................. CYCLE   18 ..............................
........................................................................

 iter      E             dE          RMSdq      gap      omega  full diag
   1    -42.4465542 -0.424466E+02  0.236E-01    0.92       0.0  T
   2    -42.4246621  0.218921E-01  0.675E-01    0.65       1.0  T
   3    -42.4447071 -0.200450E-01  0.251E-01    0.97       1.0  T
   4    -42.4473123 -0.260522E-02  0.766E-02    0.88       1.0  T
   5    -42.4473770 -0.647526E-04  0.183E-02    0.88       1.1  T
   6    -42.4473878 -0.107451E-04  0.933E-03    0.88       2.1  T
   7    -42.4473906 -0.276633E-05  0.286E-03    0.88       7.0  T
   8    -42.4473906 -0.176802E-07  0.129E-03    0.88      15.5  T
   9    -42.4473906 -0.221594E-07  0.408E-04    0.88      49.1  T
  10    -42.4473906 -0.691898E-09  0.292E-04    0.88      68.6  T
     SCC iter.                  ...        0 min,  0.013 sec
     gradient                   ...        0 min,  0.013 sec
 * total energy  :   -41.9199927 Eh     change       -0.4496419E-02 Eh
   gradient norm :     0.1016451 Eh/α   predicted    -0.3141022E-02 ( -30.14%)
   displ. norm   :     0.2695372 α      lambda       -0.6470894E-02
   maximum displ.:     0.1291990 α      in ANC's #17, #2, #5, ...

........................................................................
.............................. CYCLE   19 ..............................
........................................................................

 iter      E             dE          RMSdq      gap      omega  full diag
   1    -42.4511144 -0.424511E+02  0.230E-01    0.86       0.0  T
   2    -42.4494884  0.162603E-02  0.229E-01    0.78       1.0  T
   3    -42.4436204  0.586793E-02  0.406E-01    1.00       1.0  T
   4    -42.4513479 -0.772747E-02  0.883E-02    0.84       1.0  T
   5    -42.4514553 -0.107363E-03  0.285E-02    0.85       1.0  T
   6    -42.4514839 -0.286360E-04  0.105E-02    0.85       1.9  T
   7    -42.4514874 -0.344373E-05  0.310E-03    0.85       6.5  T
   8    -42.4514873  0.684461E-08  0.161E-03    0.85      12.4  T
   9    -42.4514874 -0.471003E-07  0.461E-04    0.85      43.4  T
  10    -42.4514874 -0.401056E-08  0.197E-04    0.85     101.3  T
     SCC iter.                  ...        0 min,  0.013 sec
     gradient                   ...        0 min,  0.013 sec
 * total energy  :   -41.9246984 Eh     change       -0.4705762E-02 Eh
   gradient norm :     0.0917955 Eh/α   predicted    -0.3470513E-02 ( -26.25%)
   displ. norm   :     0.2210704 α      lambda       -0.4712801E-02
   maximum displ.:     0.1036448 α      in ANC's #17, #2, #5, ...

........................................................................
.............................. CYCLE   20 ..............................
........................................................................

 iter      E             dE          RMSdq      gap      omega  full diag
   1    -42.4497220 -0.424497E+02  0.182E-01    0.79       0.0  T
   2    -42.4439496  0.577239E-02  0.368E-01    0.95       1.0  T
   3    -42.4491333 -0.518369E-02  0.156E-01    0.77       1.0  T
   4    -42.4498741 -0.740835E-03  0.908E-02    0.84       1.0  T
   5    -42.4501126 -0.238508E-03  0.166E-02    0.82       1.2  T
   6    -42.4501193 -0.663623E-05  0.865E-03    0.82       2.3  T
   7    -42.4501217 -0.245239E-05  0.246E-03    0.82       8.1  T
   8    -42.4501218 -0.450718E-07  0.985E-04    0.82      20.3  T
   9    -42.4501218 -0.984810E-08  0.460E-04    0.82      43.5  T
     SCC iter.                  ...        0 min,  0.012 sec
     gradient                   ...        0 min,  0.013 sec
 * total energy  :   -41.9280883 Eh     change       -0.3389867E-02 Eh
   gradient norm :     0.0739382 Eh/α   predicted    -0.2471602E-02 ( -27.09%)
   displ. norm   :     0.1668817 α      lambda       -0.3821882E-02
   maximum displ.:     0.0729719 α      in ANC's #17, #5, #23, ...
 * RMSD in coord.:     0.7825035 α      energy gain  -0.1677392E+02 Eh

generating ANC from model Hessian ...
Using Lindh-Hessian (1995)
 Shifting diagonal of input Hessian by    1.4747732950050534E-002
 Lowest  eigenvalues of input Hessian
    0.010000    0.000000    0.000000    0.000000    0.000000    0.000000
    0.000000    0.015283    0.015790    0.016406    0.017151    0.018406
    0.018642    0.024907    0.025249    0.026509    0.030468    0.035227
 Highest eigenvalues
    2.037450    2.201504    2.277261    2.338003    2.488975    4.498341


........................................................................
.............................. CYCLE   21 ..............................
........................................................................

 iter      E             dE          RMSdq      gap      omega  full diag
   1    -42.4476029 -0.424476E+02  0.161E-01    0.77       0.0  T
   2    -42.4387012  0.890171E-02  0.440E-01    0.98       1.0  T
   3    -42.4479061 -0.920488E-02  0.884E-02    0.78       1.0  T
   4    -42.4479913 -0.851775E-04  0.638E-02    0.82       1.0  T
   5    -42.4480930 -0.101762E-03  0.111E-02    0.80       1.8  T
   6    -42.4480953 -0.224009E-05  0.569E-03    0.80       3.5  T
   7    -42.4480961 -0.841823E-06  0.236E-03    0.80       8.5  T
   8    -42.4480962 -0.950759E-07  0.101E-03    0.80      19.9  T
   9    -42.4480962 -0.286625E-07  0.375E-04    0.80      53.4  T
  10    -42.4480962 -0.184159E-08  0.227E-04    0.80      88.0  T
     SCC iter.                  ...        0 min,  0.014 sec
     gradient                   ...        0 min,  0.013 sec
 * total energy  :   -41.9310381 Eh     change       -0.2949769E-02 Eh
   gradient norm :     0.0755787 Eh/α   predicted     0.0000000E+00 (-100.00%)
   displ. norm   :     0.5143048 α      lambda       -0.2166528E-01
   maximum displ.:     0.3049027 α      in ANC's #6, #14, #9, ...

........................................................................
.............................. CYCLE   22 ..............................
........................................................................

 iter      E             dE          RMSdq      gap      omega  full diag
   1    -42.4645384 -0.424645E+02  0.358E-01    0.86       0.0  T
   2    -42.4640275  0.510814E-03  0.268E-01    0.80       1.0  T
   3    -42.4600436  0.398398E-02  0.366E-01    0.99       1.0  T
   4    -42.4616534 -0.160984E-02  0.273E-01    0.75       1.0  T
   5    -42.4653237 -0.367031E-02  0.353E-02    0.86       1.0  T
   6    -42.4653741 -0.503543E-04  0.127E-02    0.85       1.6  T
   7    -42.4653759 -0.186827E-05  0.767E-03    0.85       2.6  T
   8    -42.4653766 -0.627651E-06  0.306E-03    0.85       6.5  T
   9    -42.4653768 -0.235448E-06  0.125E-03    0.85      16.1  T
  10    -42.4653768 -0.912614E-08  0.683E-04    0.85      29.3  T
  11    -42.4653768 -0.575426E-08  0.224E-04    0.85      89.1  T
     SCC iter.                  ...        0 min,  0.015 sec
     gradient                   ...        0 min,  0.013 sec
 * total energy  :   -41.9512776 Eh     change       -0.2023956E-01 Eh
   gradient norm :     0.0622053 Eh/α   predicted    -0.1369850E-01 ( -32.32%)
   displ. norm   :     0.8814672 α      lambda       -0.3925062E-01
   maximum displ.:     0.4374604 α      in ANC's #14, #6, #9, ...

........................................................................
.............................. CYCLE   23 ..............................
........................................................................

 iter      E             dE          RMSdq      gap      omega  full diag
   1    -42.4887002 -0.424887E+02  0.699E-01    1.01       0.0  T
   2    -42.4888684 -0.168255E-03  0.529E-01    1.09       1.0  T
   3    -42.4843681  0.450035E-02  0.468E-01    0.86       1.0  T
   4    -42.4785523  0.581576E-02  0.589E-01    1.28       1.0  T
   5    -42.4925562 -0.140038E-01  0.145E-01    1.02       1.0  T
   6    -42.4930889 -0.532714E-03  0.633E-02    1.05       1.0  T
   7    -42.4932417 -0.152812E-03  0.245E-02    1.03       1.0  T
   8    -42.4932409  0.747294E-06  0.158E-02    1.02       1.3  T
   9    -42.4932491 -0.819244E-05  0.501E-03    1.03       4.0  T
  10    -42.4932500 -0.877955E-06  0.157E-03    1.03      12.8  T
  11    -42.4932500  0.353073E-07  0.124E-03    1.03      16.1  T
  12    -42.4932500 -0.554810E-07  0.260E-04    1.03      77.1  T
  13    -42.4932500 -0.103584E-08  0.158E-04    1.03     126.8  T
     SCC iter.                  ...        0 min,  0.017 sec
     gradient                   ...        0 min,  0.013 sec
 * total energy  :   -41.9904364 Eh     change       -0.3915873E-01 Eh
   gradient norm :     0.1273973 Eh/α   predicted    -0.3487409E-01 ( -10.94%)
   displ. norm   :     0.9356028 α      lambda       -0.4890302E-01
   maximum displ.:     0.4284897 α      in ANC's #14, #6, #37, ...

........................................................................
.............................. CYCLE   24 ..............................
........................................................................

 iter      E             dE          RMSdq      gap      omega  full diag
   1    -42.4929799 -0.424930E+02  0.128E+00    0.55       0.0  T
   2    -42.4338818  0.590981E-01  0.151E+00    1.84       1.0  T
   3    -42.5023416 -0.684598E-01  0.948E-01    0.54       1.0  T
   4    -42.5243422 -0.220006E-01  0.427E-01    1.02       1.0  T
   5    -42.5266079 -0.226571E-02  0.166E-01    0.85       1.0  T
   6    -42.5271351 -0.527220E-03  0.585E-02    0.89       1.0  T
   7    -42.5271111  0.239710E-04  0.572E-02    0.93       1.0  T
   8    -42.5272195 -0.108386E-03  0.256E-02    0.92       1.0  T
   9    -42.5272351 -0.155497E-04  0.136E-02    0.90       1.5  T
  10    -42.5272417 -0.663270E-05  0.598E-03    0.91       3.3  T
  11    -42.5272431 -0.134141E-05  0.155E-03    0.91      12.9  T
  12    -42.5272431 -0.866594E-07  0.471E-04    0.90      42.5  T
  13    -42.5272432 -0.681408E-08  0.184E-04    0.90     108.9  T
     SCC iter.                  ...        0 min,  0.017 sec
     gradient                   ...        0 min,  0.013 sec
 * total energy  :   -42.0067195 Eh     change       -0.1628311E-01 Eh
   gradient norm :     0.2671640 Eh/α   predicted    -0.4585524E-01 ( 181.61%)
   displ. norm   :     0.4258572 α      lambda       -0.4856275E-01
   maximum displ.:     0.1847475 α      in ANC's #37, #41, #39, ...

........................................................................
.............................. CYCLE   25 ..............................
........................................................................

 iter      E             dE          RMSdq      gap      omega  full diag
   1    -42.4916315 -0.424916E+02  0.823E-01    1.26       0.0  T
   2    -42.3216447  0.169987E+00  0.197E+00    0.29       1.0  T
   3    -42.5021901 -0.180545E+00  0.523E-01    1.23       1.0  T
   4    -42.5078003 -0.561016E-02  0.298E-01    0.94       1.0  T
   5    -42.5086803 -0.880053E-03  0.250E-01    1.07       1.0  T
   6    -42.5095899 -0.909589E-03  0.115E-01    0.99       1.0  T
   7    -42.5099705 -0.380581E-03  0.603E-02    1.01       1.0  T
   8    -42.5101253 -0.154792E-03  0.159E-02    1.02       1.3  T
   9    -42.5101319 -0.664490E-05  0.607E-03    1.03       3.3  T
  10    -42.5101318  0.115211E-06  0.309E-03    1.03       6.5  T
  11    -42.5101322 -0.361485E-06  0.103E-03    1.03      19.4  T
  12    -42.5101322 -0.926790E-08  0.554E-04    1.03      36.1  T
  13    -42.5101322 -0.132133E-07  0.796E-05    1.03     251.4  T
     SCC iter.                  ...        0 min,  0.017 sec
     gradient                   ...        0 min,  0.013 sec
 * total energy  :   -42.0179514 Eh     change       -0.1123190E-01 Eh
   gradient norm :     0.1713348 Eh/α   predicted    -0.2868504E-01 ( 155.39%)
   displ. norm   :     0.2844096 α      lambda       -0.1071401E-01
   maximum displ.:     0.2076147 α      in ANC's #6, #9, #14, ...

........................................................................
.............................. CYCLE   26 ..............................
........................................................................

 iter      E             dE          RMSdq      gap      omega  full diag
   1    -42.5205152 -0.425205E+02  0.249E-01    0.98       0.0  T
   2    -42.5178111  0.270412E-02  0.273E-01    1.16       1.0  T
   3    -42.5186156 -0.804454E-03  0.256E-01    0.90       1.0  T
   4    -42.5211000 -0.248449E-02  0.762E-02    1.03       1.0  T
   5    -42.5211499 -0.499073E-04  0.462E-02    1.02       1.0  T
   6    -42.5212045 -0.545933E-04  0.999E-03    1.03       2.0  T
   7    -42.5212058 -0.123651E-05  0.587E-03    1.03       3.4  T
   8    -42.5212064 -0.637029E-06  0.171E-03    1.03      11.7  T
   9    -42.5212065 -0.414919E-07  0.867E-04    1.03      23.1  T
  10    -42.5212065 -0.773485E-08  0.432E-04    1.03      46.3  T
     SCC iter.                  ...        0 min,  0.013 sec
     gradient                   ...        0 min,  0.013 sec
 * total energy  :   -42.0273453 Eh     change       -0.9393921E-02 Eh
   gradient norm :     0.1578393 Eh/α   predicted    -0.5790356E-02 ( -38.36%)
   displ. norm   :     0.5896930 α      lambda       -0.2337934E-01
   maximum displ.:     0.4188800 α      in ANC's #6, #9, #18, ...

........................................................................
.............................. CYCLE   27 ..............................
........................................................................

 iter      E             dE          RMSdq      gap      omega  full diag
   1    -42.5143635 -0.425144E+02  0.909E-01    0.48       0.0  T
   2    -42.4111220  0.103242E+00  0.165E+00    2.17       1.0  T
   3    -42.5438582 -0.132736E+00  0.366E-01    0.85       1.0  T
   4    -42.5454454 -0.158718E-02  0.176E-01    0.88       1.0  T
   5    -42.5445675  0.877902E-03  0.148E-01    0.79       1.0  T
   6    -42.5454822 -0.914718E-03  0.294E-02    0.87       1.0  T
   7    -42.5454966 -0.144280E-04  0.208E-02    0.88       1.0  T
   8    -42.5455091 -0.124424E-04  0.992E-03    0.88       2.0  T
   9    -42.5455112 -0.216839E-05  0.408E-03    0.87       4.9  T
  10    -42.5455118 -0.532547E-06  0.150E-03    0.87      13.3  T
  11    -42.5455118 -0.344150E-07  0.806E-04    0.87      24.8  T
  12    -42.5455118 -0.264371E-07  0.173E-04    0.87     115.7  T
     SCC iter.                  ...        0 min,  0.016 sec
     gradient                   ...        0 min,  0.013 sec
 * total energy  :   -42.0391866 Eh     change       -0.1184126E-01 Eh
   gradient norm :     0.1510958 Eh/α   predicted    -0.1575461E-01 (  33.05%)
   displ. norm   :     0.3174780 α      lambda       -0.1262273E-01
   maximum displ.:     0.1878309 α      in ANC's #6, #14, #1, ...

........................................................................
.............................. CYCLE   28 ..............................
........................................................................

 iter      E             dE          RMSdq      gap      omega  full diag
   1    -42.5527388 -0.425527E+02  0.300E-01    1.02       0.0  T
   2    -42.5396411  0.130978E-01  0.577E-01    0.63       1.0  T
   3    -42.5540163 -0.143752E-01  0.161E-01    0.97       1.0  T
   4    -42.5542272 -0.210930E-03  0.903E-02    0.91       1.0  T
   5    -42.5543583 -0.131146E-03  0.234E-02    0.92       1.0  T
   6    -42.5543714 -0.130462E-04  0.978E-03    0.92       2.0  T
   7    -42.5543725 -0.115980E-05  0.527E-03    0.92       3.8  T
   8    -42.5543733 -0.736073E-06  0.161E-03    0.92      12.4  T
   9    -42.5543733 -0.487113E-07  0.785E-04    0.92      25.5  T
  10    -42.5543733 -0.558533E-08  0.372E-04    0.92      53.8  T
     SCC iter.                  ...        0 min,  0.013 sec
     gradient                   ...        0 min,  0.013 sec
 * total energy  :   -42.0485851 Eh     change       -0.9398501E-02 Eh
   gradient norm :     0.1141258 Eh/α   predicted    -0.6947505E-02 ( -26.08%)
   displ. norm   :     0.5165276 α      lambda       -0.1557315E-01
   maximum displ.:     0.3417813 α      in ANC's #6, #14, #1, ...

........................................................................
.............................. CYCLE   29 ..............................
........................................................................

 iter      E             dE          RMSdq      gap      omega  full diag
   1    -42.5672173 -0.425672E+02  0.328E-01    1.01       0.0  T
   2    -42.5657565  0.146089E-02  0.289E-01    0.86       1.0  T
   3    -42.5633556  0.240089E-02  0.313E-01    1.15       1.0  T
   4    -42.5673730 -0.401743E-02  0.108E-01    0.93       1.0  T
   5    -42.5676843 -0.311309E-03  0.179E-02    0.96       1.1  T
   6    -42.5676877 -0.343520E-05  0.856E-03    0.96       2.3  T
   7    -42.5676885 -0.770438E-06  0.338E-03    0.96       5.9  T
   8    -42.5676886 -0.108837E-06  0.115E-03    0.96      17.4  T
   9    -42.5676886 -0.559183E-08  0.519E-04    0.96      38.5  T
  10    -42.5676886 -0.302574E-08  0.238E-04    0.96      84.0  T
     SCC iter.                  ...        0 min,  0.014 sec
     gradient                   ...        0 min,  0.012 sec
 * total energy  :   -42.0579509 Eh     change       -0.9365827E-02 Eh
   gradient norm :     0.0821465 Eh/α   predicted    -0.9864072E-02 (   5.32%)
   displ. norm   :     0.5911723 α      lambda       -0.1515039E-01
   maximum displ.:     0.3761664 α      in ANC's #6, #1, #9, ...

........................................................................
.............................. CYCLE   30 ..............................
........................................................................

 iter      E             dE          RMSdq      gap      omega  full diag
   1    -42.5807967 -0.425808E+02  0.471E-01    0.94       0.0  T
   2    -42.5812772 -0.480514E-03  0.298E-01    1.07       1.0  T
   3    -42.5780646  0.321260E-02  0.364E-01    0.80       1.0  T
   4    -42.5819571 -0.389246E-02  0.191E-01    1.07       1.0  T
   5    -42.5830146 -0.105757E-02  0.397E-02    0.97       1.0  T
   6    -42.5830519 -0.372309E-04  0.106E-02    0.98       1.9  T
   7    -42.5830528 -0.959753E-06  0.559E-03    0.98       3.6  T
   8    -42.5830531 -0.241717E-06  0.179E-03    0.98      11.2  T
   9    -42.5830531 -0.469473E-07  0.675E-04    0.98      29.6  T
  10    -42.5830531 -0.367094E-08  0.269E-04    0.98      74.2  T
     SCC iter.                  ...        0 min,  0.013 sec
     gradient                   ...        0 min,  0.013 sec
 * total energy  :   -42.0628723 Eh     change       -0.4921452E-02 Eh
   gradient norm :     0.0639724 Eh/α   predicted    -0.1022263E-01 ( 107.72%)
   displ. norm   :     0.3671685 α      lambda       -0.6845972E-02
   maximum displ.:     0.2624790 α      in ANC's #6, #1, #9, ...

........................................................................
.............................. CYCLE   31 ..............................
........................................................................

 iter      E             dE          RMSdq      gap      omega  full diag
   1    -42.5841517 -0.425842E+02  0.346E-01    1.21       0.0  T
   2    -42.5681034  0.160484E-01  0.631E-01    0.72       1.0  T
   3    -42.5844455 -0.163421E-01  0.241E-01    1.20       1.0  T
   4    -42.5861231 -0.167759E-02  0.522E-02    1.07       1.0  T
   5    -42.5861848 -0.617386E-04  0.106E-02    1.07       1.9  T
   6    -42.5861869 -0.204279E-05  0.436E-03    1.07       4.6  T
   7    -42.5861869 -0.369290E-07  0.220E-03    1.07       9.1  T
   8    -42.5861870 -0.783460E-07  0.844E-04    1.07      23.7  T
   9    -42.5861870 -0.138154E-07  0.381E-04    1.07      52.5  T
     SCC iter.                  ...        0 min,  0.012 sec
     gradient                   ...        0 min,  0.013 sec
 * total energy  :   -42.0668149 Eh     change       -0.3942522E-02 Eh
   gradient norm :     0.0452947 Eh/α   predicted    -0.3884473E-02 (  -1.47%)
   displ. norm   :     0.4719236 α      lambda       -0.7339151E-02
   maximum displ.:     0.2931247 α      in ANC's #9, #14, #1, ...

........................................................................
.............................. CYCLE   32 ..............................
........................................................................

 iter      E             dE          RMSdq      gap      omega  full diag
   1    -42.5875512 -0.425876E+02  0.486E-01    0.99       0.0  T
   2    -42.5774216  0.101295E-01  0.593E-01    1.49       1.0  T
   3    -42.5876175 -0.101958E-01  0.356E-01    0.95       1.0  T
   4    -42.5913394 -0.372193E-02  0.130E-01    1.14       1.0  T
   5    -42.5914831 -0.143728E-03  0.477E-02    1.09       1.0  T
   6    -42.5915452 -0.620945E-04  0.131E-02    1.11       1.5  T
   7    -42.5915486 -0.340382E-05  0.561E-03    1.11       3.6  T
   8    -42.5915488 -0.224053E-06  0.223E-03    1.11       9.0  T
   9    -42.5915489 -0.847296E-07  0.738E-04    1.11      27.1  T
  10    -42.5915489 -0.114768E-08  0.465E-04    1.11      43.0  T
     SCC iter.                  ...        0 min,  0.013 sec
     gradient                   ...        0 min,  0.013 sec
 * total energy  :   -42.0666372 Eh     change        0.1776877E-03 Eh
   gradient norm :     0.0625730 Eh/α   predicted    -0.4486863E-02 (*******%)
   displ. norm   :     0.4531386 α      lambda       -0.7299480E-02
   maximum displ.:     0.3370109 α      in ANC's #6, #14, #41, ...

........................................................................
.............................. CYCLE   33 ..............................
........................................................................

 iter      E             dE          RMSdq      gap      omega  full diag
   1    -42.5868135 -0.425868E+02  0.539E-01    1.47       0.0  T
   2    -42.5402143  0.465992E-01  0.106E+00    0.61       1.0  T
   3    -42.5890940 -0.488797E-01  0.367E-01    1.41       1.0  T
   4    -42.5925253 -0.343128E-02  0.150E-01    1.28       1.0  T
   5    -42.5930175 -0.492248E-03  0.244E-02    1.22       1.0  T
   6    -42.5930346 -0.170768E-04  0.896E-03    1.21       2.2  T
   7    -42.5930356 -0.104513E-05  0.423E-03    1.21       4.7  T
   8    -42.5930356  0.377435E-07  0.215E-03    1.21       9.3  T
   9    -42.5930358 -0.159810E-06  0.544E-04    1.21      36.7  T
  10    -42.5930358 -0.271407E-08  0.243E-04    1.21      82.2  T
     SCC iter.                  ...        0 min,  0.013 sec
     gradient                   ...        0 min,  0.013 sec
 * total energy  :   -42.0709596 Eh     change       -0.4322426E-02 Eh
   gradient norm :     0.0349942 Eh/α   predicted    -0.4399163E-02 (   1.78%)
   displ. norm   :     0.3584411 α      lambda       -0.3666376E-02
   maximum displ.:     0.2753772 α      in ANC's #6, #1, #14, ...

........................................................................
.............................. CYCLE   34 ..............................
........................................................................

 iter      E             dE          RMSdq      gap      omega  full diag
   1    -42.5933995 -0.425934E+02  0.314E-01    1.39       0.0  T
   2    -42.5886334  0.476607E-02  0.366E-01    1.08       1.0  T
   3    -42.5922089 -0.357553E-02  0.260E-01    1.44       1.0  T
   4    -42.5941481 -0.193915E-02  0.372E-02    1.29       1.0  T
   5    -42.5941801 -0.320509E-04  0.117E-02    1.30       1.7  T
   6    -42.5941837 -0.354241E-05  0.402E-03    1.29       5.0  T
   7    -42.5941839 -0.209937E-06  0.217E-03    1.29       9.2  T
   8    -42.5941840 -0.844635E-07  0.684E-04    1.29      29.2  T
   9    -42.5941840 -0.109529E-07  0.270E-04    1.29      73.9  T
     SCC iter.                  ...        0 min,  0.012 sec
     gradient                   ...        0 min,  0.013 sec
 * total energy  :   -42.0731441 Eh     change       -0.2184459E-02 Eh
   gradient norm :     0.0301290 Eh/α   predicted    -0.2068718E-02 (  -5.30%)
   displ. norm   :     0.4493184 α      lambda       -0.2894885E-02
   maximum displ.:     0.3713157 α      in ANC's #6, #9, #14, ...

........................................................................
.............................. CYCLE   35 ..............................
........................................................................

 iter      E             dE          RMSdq      gap      omega  full diag
   1    -42.5985151 -0.425985E+02  0.310E-01    1.52       0.0  T
   2    -42.5935075  0.500756E-02  0.383E-01    1.18       1.0  T
   3    -42.5980925 -0.458499E-02  0.231E-01    1.54       1.0  T
   4    -42.5995096 -0.141711E-02  0.496E-02    1.41       1.0  T
   5    -42.5995560 -0.463789E-04  0.141E-02    1.41       1.4  T
   6    -42.5995605 -0.453725E-05  0.463E-03    1.41       4.3  T
   7    -42.5995607 -0.171361E-06  0.255E-03    1.41       7.9  T
   8    -42.5995608 -0.875891E-07  0.914E-04    1.41      21.9  T
   9    -42.5995608 -0.172277E-07  0.391E-04    1.41      51.1  T
     SCC iter.                  ...        0 min,  0.012 sec
     gradient                   ...        0 min,  0.013 sec
 * total energy  :   -42.0753373 Eh     change       -0.2193264E-02 Eh
   gradient norm :     0.0398532 Eh/α   predicted    -0.1739668E-02 ( -20.68%)
   displ. norm   :     0.4510436 α      lambda       -0.3279360E-02
   maximum displ.:     0.3315280 α      in ANC's #6, #9, #12, ...

........................................................................
.............................. CYCLE   36 ..............................
........................................................................

 iter      E             dE          RMSdq      gap      omega  full diag
   1    -42.6101179 -0.426101E+02  0.325E-01    1.61       0.0  T
   2    -42.6034768  0.664110E-02  0.466E-01    1.24       1.0  T
   3    -42.6111446 -0.766786E-02  0.184E-01    1.61       1.0  T
   4    -42.6119374 -0.792821E-03  0.657E-02    1.50       1.0  T
   5    -42.6119817 -0.442319E-04  0.159E-02    1.52       1.3  T
   6    -42.6119878 -0.612448E-05  0.635E-03    1.52       3.2  T
   7    -42.6119882 -0.419309E-06  0.318E-03    1.52       6.3  T
   8    -42.6119883 -0.122848E-06  0.111E-03    1.52      18.0  T
   9    -42.6119884 -0.118251E-07  0.553E-04    1.52      36.2  T
  10    -42.6119884 -0.285025E-08  0.234E-04    1.52      85.5  T
     SCC iter.                  ...        0 min,  0.013 sec
     gradient                   ...        0 min,  0.012 sec
 * total energy  :   -42.0777369 Eh     change       -0.2399558E-02 Eh
   gradient norm :     0.0458059 Eh/α   predicted    -0.1973257E-02 ( -17.77%)
   displ. norm   :     0.4291651 α      lambda       -0.2825968E-02
   maximum displ.:     0.3218523 α      in ANC's #6, #9, #10, ...

........................................................................
.............................. CYCLE   37 ..............................
........................................................................

 iter      E             dE          RMSdq      gap      omega  full diag
   1    -42.6200035 -0.426200E+02  0.298E-01    1.67       0.0  T
   2    -42.6149302  0.507335E-02  0.423E-01    1.39       1.0  T
   3    -42.6212347 -0.630448E-02  0.143E-01    1.67       1.0  T
   4    -42.6214579 -0.223246E-03  0.745E-02    1.57       1.0  T
   5    -42.6215807 -0.122833E-03  0.198E-02    1.62       1.0  T
   6    -42.6215912 -0.104120E-04  0.562E-03    1.61       3.6  T
   7    -42.6215913 -0.135860E-06  0.266E-03    1.61       7.5  T
   8    -42.6215914 -0.651674E-07  0.895E-04    1.61      22.3  T
   9    -42.6215914 -0.445667E-08  0.489E-04    1.61      40.9  T
     SCC iter.                  ...        0 min,  0.012 sec
     gradient                   ...        0 min,  0.013 sec
 * total energy  :   -42.0799133 Eh     change       -0.2176387E-02 Eh
   gradient norm :     0.0417774 Eh/α   predicted    -0.1673233E-02 ( -23.12%)
   displ. norm   :     0.6035901 α      lambda       -0.4027839E-02
   maximum displ.:     0.4713639 α      in ANC's #6, #9, #10, ...

........................................................................
.............................. CYCLE   38 ..............................
........................................................................

 iter      E             dE          RMSdq      gap      omega  full diag
   1    -42.6325465 -0.426325E+02  0.354E-01    1.68       0.0  T
   2    -42.6329499 -0.403401E-03  0.236E-01    1.69       1.0  T
   3    -42.6328872  0.627594E-04  0.177E-01    1.76       1.0  T
   4    -42.6328321  0.550631E-04  0.140E-01    1.63       1.0  T
   5    -42.6335791 -0.747024E-03  0.271E-02    1.73       1.0  T
   6    -42.6335994 -0.203058E-04  0.781E-03    1.71       2.6  T
   7    -42.6336002 -0.729802E-06  0.396E-03    1.71       5.1  T
   8    -42.6336003 -0.119232E-06  0.132E-03    1.71      15.2  T
   9    -42.6336003 -0.440413E-07  0.499E-04    1.71      40.1  T
  10    -42.6336003 -0.911740E-09  0.220E-04    1.71      90.9  T
     SCC iter.                  ...        0 min,  0.013 sec
     gradient                   ...        0 min,  0.012 sec
 * total energy  :   -42.0832479 Eh     change       -0.3334641E-02 Eh
   gradient norm :     0.0519309 Eh/α   predicted    -0.2747637E-02 ( -17.60%)
   displ. norm   :     0.6423170 α      lambda       -0.7940571E-02
   maximum displ.:     0.2979799 α      in ANC's #6, #18, #14, ...

........................................................................
.............................. CYCLE   39 ..............................
........................................................................

 iter      E             dE          RMSdq      gap      omega  full diag
   1    -42.6727499 -0.426727E+02  0.695E-01    1.97       0.0  T
   2    -42.6619958  0.107541E-01  0.852E-01    1.55       1.0  T
   3    -42.6826985 -0.207027E-01  0.262E-01    2.02       1.0  T
   4    -42.6827591 -0.605767E-04  0.179E-01    1.82       1.0  T
   5    -42.6834842 -0.725116E-03  0.641E-02    1.95       1.0  T
   6    -42.6835977 -0.113517E-03  0.145E-02    1.92       1.4  T
   7    -42.6836006 -0.287222E-05  0.587E-03    1.92       3.4  T
   8    -42.6836007 -0.122359E-06  0.303E-03    1.92       6.6  T
   9    -42.6836009 -0.144399E-06  0.981E-04    1.92      20.4  T
  10    -42.6836009 -0.132308E-07  0.316E-04    1.92      63.2  T
     SCC iter.                  ...        0 min,  0.013 sec
     gradient                   ...        0 min,  0.013 sec
 * total energy  :   -42.0848208 Eh     change       -0.1572913E-02 Eh
   gradient norm :     0.1578781 Eh/α   predicted    -0.5608306E-02 ( 256.56%)
   displ. norm   :     0.4431877 α      lambda       -0.1231543E-01
   maximum displ.:     0.2899727 α      in ANC's #6, #45, #27, ...

........................................................................
.............................. CYCLE   40 ..............................
........................................................................

 iter      E             dE          RMSdq      gap      omega  full diag
   1    -42.6578102 -0.426578E+02  0.689E-01    1.57       0.0  T
   2    -42.6473164  0.104938E-01  0.833E-01    2.42       1.0  T
   3    -42.6709149 -0.235985E-01  0.210E-01    2.03       1.0  T
   4    -42.6709856 -0.707177E-04  0.119E-01    2.00       1.0  T
   5    -42.6709958 -0.101353E-04  0.511E-02    1.96       1.0  T
   6    -42.6710923 -0.965461E-04  0.979E-03    1.99       2.0  T
   7    -42.6710945 -0.218298E-05  0.415E-03    2.00       4.8  T
   8    -42.6710948 -0.291062E-06  0.198E-03    1.99      10.1  T
   9    -42.6710949 -0.456347E-07  0.770E-04    1.99      26.0  T
  10    -42.6710949 -0.772797E-08  0.355E-04    1.99      56.4  T
     SCC iter.                  ...        0 min,  0.013 sec
     gradient                   ...        0 min,  0.013 sec
 * total energy  :   -42.0921192 Eh     change       -0.7298392E-02 Eh
   gradient norm :     0.0623785 Eh/α   predicted    -0.7367183E-02 (   0.94%)
   displ. norm   :     0.3726967 α      lambda       -0.8178889E-02
   maximum displ.:     0.2410904 α      in ANC's #6, #14, #10, ...

........................................................................
.............................. CYCLE   41 ..............................
........................................................................

 iter      E             dE          RMSdq      gap      omega  full diag
   1    -42.6758171 -0.426758E+02  0.277E-01    1.98       0.0  T
   2    -42.6760819 -0.264851E-03  0.199E-01    2.09       1.0  T
   3    -42.6765565 -0.474567E-03  0.126E-01    1.98       1.0  T
   4    -42.6765947 -0.381993E-04  0.767E-02    2.09       1.0  T
   5    -42.6767662 -0.171451E-03  0.250E-02    2.01       1.0  T
   6    -42.6767852 -0.190727E-04  0.458E-03    2.03       4.4  T
   7    -42.6767853 -0.108448E-06  0.257E-03    2.03       7.8  T
   8    -42.6767854 -0.671689E-07  0.675E-04    2.03      29.6  T
   9    -42.6767854 -0.422247E-08  0.305E-04    2.03      65.6  T
     SCC iter.                  ...        0 min,  0.012 sec
     gradient                   ...        0 min,  0.012 sec
 * total energy  :   -42.0980166 Eh     change       -0.5897431E-02 Eh
   gradient norm :     0.0474576 Eh/α   predicted    -0.4657490E-02 ( -21.03%)
   displ. norm   :     0.5371001 α      lambda       -0.1081379E-01
   maximum displ.:     0.2647669 α      in ANC's #14, #17, #15, ...

........................................................................
.............................. CYCLE   42 ..............................
........................................................................

 iter      E             dE          RMSdq      gap      omega  full diag
   1    -42.7021986 -0.427022E+02  0.346E-01    2.14       0.0  T
   2    -42.7022430 -0.444148E-04  0.208E-01    2.06       1.0  T
   3    -42.7015740  0.669036E-03  0.156E-01    2.22       1.0  T
   4    -42.7022713 -0.697294E-03  0.573E-02    2.06       1.0  T
   5    -42.7023710 -0.997609E-04  0.102E-02    2.10       2.0  T
   6    -42.7023725 -0.142830E-05  0.455E-03    2.10       4.4  T
   7    -42.7023726 -0.105842E-06  0.152E-03    2.10      13.2  T
   8    -42.7023726 -0.476705E-07  0.504E-04    2.10      39.7  T
   9    -42.7023726 -0.846022E-09  0.217E-04    2.10      92.0  T
     SCC iter.                  ...        0 min,  0.012 sec
     gradient                   ...        0 min,  0.013 sec
 * total energy  :   -42.1065016 Eh     change       -0.8484936E-02 Eh
   gradient norm :     0.0388083 Eh/α   predicted    -0.6966671E-02 ( -17.89%)
   displ. norm   :     0.6081816 α      lambda       -0.9741698E-02
   maximum displ.:     0.2713950 α      in ANC's #14, #17, #37, ...
 * RMSD in coord.:     1.3407987 α      energy gain  -0.1784133E+00 Eh

generating ANC from model Hessian ...
Using Lindh-Hessian (1995)
 Shifting diagonal of input Hessian by    9.8383742135919813E-003
 Lowest  eigenvalues of input Hessian
    0.000000    0.000000    0.000000    0.000000    0.000000    0.000000
    0.010000    0.010184    0.010195    0.011174    0.011260    0.011968
    0.012510    0.013546    0.016597    0.020643    0.021428    0.024602
 Highest eigenvalues
    2.089960    2.201119    2.244226    2.327478    2.989966    5.244604


........................................................................
.............................. CYCLE   43 ..............................
........................................................................

 iter      E             dE          RMSdq      gap      omega  full diag
   1    -42.7218338 -0.427218E+02  0.290E-01    2.19       0.0  T
   2    -42.7217984  0.353566E-04  0.182E-01    2.07       1.0  T
   3    -42.7210683  0.730164E-03  0.178E-01    2.26       1.0  T
   4    -42.7220185 -0.950254E-03  0.348E-02    2.12       1.0  T
   5    -42.7220426 -0.241088E-04  0.959E-03    2.13       2.1  T
   6    -42.7220440 -0.142524E-05  0.408E-03    2.13       4.9  T
   7    -42.7220441 -0.296792E-07  0.931E-04    2.13      21.5  T
   8    -42.7220441 -0.685286E-08  0.434E-04    2.13      46.1  T
     SCC iter.                  ...        0 min,  0.011 sec
     gradient                   ...        0 min,  0.013 sec
 * total energy  :   -42.1134399 Eh     change       -0.6938338E-02 Eh
   gradient norm :     0.0545281 Eh/α   predicted     0.0000000E+00 (-100.00%)
   displ. norm   :     0.4798063 α      lambda       -0.9418067E-02
   maximum displ.:     0.3938127 α      in ANC's #8, #12, #10, ...

........................................................................
.............................. CYCLE   44 ..............................
........................................................................

 iter      E             dE          RMSdq      gap      omega  full diag
   1    -42.7244717 -0.427245E+02  0.273E-01    2.01       0.0  T
   2    -42.7238498  0.621863E-03  0.270E-01    2.27       1.0  T
   3    -42.7251839 -0.133402E-02  0.125E-01    2.07       1.0  T
   4    -42.7251563  0.275293E-04  0.716E-02    2.15       1.0  T
   5    -42.7252944 -0.138020E-03  0.726E-03    2.11       2.8  T
   6    -42.7252953 -0.936125E-06  0.324E-03    2.11       6.2  T
   7    -42.7252953 -0.250578E-07  0.151E-03    2.11      13.3  T
   8    -42.7252953 -0.339216E-07  0.422E-04    2.11      47.3  T
   9    -42.7252953 -0.137208E-08  0.245E-04    2.11      81.5  T
     SCC iter.                  ...        0 min,  0.012 sec
     gradient                   ...        0 min,  0.013 sec
 * total energy  :   -42.1211295 Eh     change       -0.7689566E-02 Eh
   gradient norm :     0.0289554 Eh/α   predicted    -0.5804489E-02 ( -24.51%)
   displ. norm   :     0.7294379 α      lambda       -0.1099959E-01
   maximum displ.:     0.5427133 α      in ANC's #8, #12, #15, ...

........................................................................
.............................. CYCLE   45 ..............................
........................................................................

 iter      E             dE          RMSdq      gap      omega  full diag
   1    -42.7210891 -0.427211E+02  0.482E-01    1.92       0.0  T
   2    -42.7197962  0.129288E-02  0.431E-01    2.31       1.0  T
   3    -42.7225136 -0.271739E-02  0.231E-01    1.97       1.0  T
   4    -42.7225785 -0.649402E-04  0.146E-01    2.15       1.0  T
   5    -42.7231973 -0.618739E-03  0.130E-02    2.07       1.5  T
   6    -42.7231993 -0.201993E-05  0.660E-03    2.07       3.0  T
   7    -42.7231995 -0.212670E-06  0.259E-03    2.07       7.7  T
   8    -42.7231996 -0.805286E-07  0.823E-04    2.07      24.3  T
   9    -42.7231996 -0.557490E-08  0.465E-04    2.07      43.0  T
     SCC iter.                  ...        0 min,  0.012 sec
     gradient                   ...        0 min,  0.012 sec
 * total energy  :   -42.1269828 Eh     change       -0.5853345E-02 Eh
   gradient norm :     0.0587531 Eh/α   predicted    -0.8426163E-02 (  43.95%)
   displ. norm   :     0.6471436 α      lambda       -0.1097668E-01
   maximum displ.:     0.4212831 α      in ANC's #8, #5, #17, ...

........................................................................
.............................. CYCLE   46 ..............................
........................................................................

 iter      E             dE          RMSdq      gap      omega  full diag
   1    -42.7281728 -0.427282E+02  0.434E-01    1.98       0.0  T
   2    -42.7279948  0.178001E-03  0.294E-01    2.15       1.0  T
   3    -42.7268829  0.111186E-02  0.264E-01    1.88       1.0  T
   4    -42.7283466 -0.146367E-02  0.108E-01    2.11       1.0  T
   5    -42.7287315 -0.384965E-03  0.131E-02    2.05       1.5  T
   6    -42.7287338 -0.225027E-05  0.584E-03    2.05       3.4  T
   7    -42.7287338 -0.602808E-07  0.252E-03    2.05       7.9  T
   8    -42.7287339 -0.988035E-07  0.701E-04    2.05      28.5  T
   9    -42.7287339 -0.430252E-08  0.371E-04    2.05      53.8  T
     SCC iter.                  ...        0 min,  0.012 sec
     gradient                   ...        0 min,  0.012 sec
 * total energy  :   -42.1325316 Eh     change       -0.5548757E-02 Eh
   gradient norm :     0.0688975 Eh/α   predicted    -0.7786883E-02 (  40.34%)
   displ. norm   :     0.3822197 α      lambda       -0.5152732E-02
   maximum displ.:     0.3185011 α      in ANC's #8, #17, #15, ...

........................................................................
.............................. CYCLE   47 ..............................
........................................................................

 iter      E             dE          RMSdq      gap      omega  full diag
   1    -42.7428321 -0.427428E+02  0.207E-01    2.21       0.0  T
   2    -42.7418599  0.972189E-03  0.254E-01    1.94       1.0  T
   3    -42.7435800 -0.172009E-02  0.862E-02    2.12       1.0  T
   4    -42.7435666  0.134278E-04  0.460E-02    2.08       1.0  T
   5    -42.7436107 -0.441348E-04  0.752E-03    2.10       2.7  T
   6    -42.7436118 -0.114907E-05  0.282E-03    2.10       7.1  T
   7    -42.7436119 -0.457784E-07  0.156E-03    2.10      12.8  T
   8    -42.7436119 -0.229284E-07  0.409E-04    2.10      48.9  T
   9    -42.7436119 -0.232621E-08  0.193E-04    2.10     103.8  T
     SCC iter.                  ...        0 min,  0.012 sec
     gradient                   ...        0 min,  0.012 sec
 * total energy  :   -42.1362478 Eh     change       -0.3716198E-02 Eh
   gradient norm :     0.0309199 Eh/α   predicted    -0.2952754E-02 ( -20.54%)
   displ. norm   :     0.6255409 α      lambda       -0.5668650E-02
   maximum displ.:     0.4572251 α      in ANC's #8, #6, #9, ...

........................................................................
.............................. CYCLE   48 ..............................
........................................................................

 iter      E             dE          RMSdq      gap      omega  full diag
   1    -42.7539594 -0.427540E+02  0.342E-01    2.28       0.0  T
   2    -42.7533447  0.614660E-03  0.295E-01    2.03       1.0  T
   3    -42.7544252 -0.108053E-02  0.173E-01    2.27       1.0  T
   4    -42.7547851 -0.359872E-03  0.639E-02    2.16       1.0  T
   5    -42.7548779 -0.927722E-04  0.128E-02    2.19       1.6  T
   6    -42.7548816 -0.370380E-05  0.428E-03    2.19       4.7  T
   7    -42.7548816 -0.551364E-07  0.238E-03    2.19       8.4  T
   8    -42.7548817 -0.677117E-07  0.508E-04    2.18      39.4  T
   9    -42.7548817 -0.251665E-08  0.247E-04    2.18      80.9  T
     SCC iter.                  ...        0 min,  0.012 sec
     gradient                   ...        0 min,  0.012 sec
 * total energy  :   -42.1388030 Eh     change       -0.2555247E-02 Eh
   gradient norm :     0.0302924 Eh/α   predicted    -0.3943407E-02 (  54.33%)
   displ. norm   :     0.5600693 α      lambda       -0.4145707E-02
   maximum displ.:     0.4116208 α      in ANC's #8, #12, #15, ...

........................................................................
.............................. CYCLE   49 ..............................
........................................................................

 iter      E             dE          RMSdq      gap      omega  full diag
[...]
N           -3.59491803979642        1.26998355133714       -0.12764986323969
C           -3.82382959013642        2.65167438244745       -0.04405487861529
C           -3.95235676471859        0.14134771997689       -0.06683523912593
O           -4.11211266735552       -1.00667616208177       -0.05409791214621
N           -0.33473991369260       -1.27704606923059        0.14539286475801
C           -1.01637316331211       -2.53070349329346        0.09746713443188
H            4.10119112321460        1.31156736267373        0.94228698225409
H            5.00560157206431        0.34226904618031       -0.24020196095622
H            3.85383307317322        1.57614521020173       -0.79352018443610
H            4.06972227028925       -1.98015236669882       -0.27569902054798
H           -2.85502382391264        3.15182398658121       -0.05105913374673
H           -4.40479644469170        2.99138812953756       -0.90419940159112
H           -4.35506214319421        2.91024195374321        0.87389448234402
H           -0.76749753071213       -3.15062037273748        0.96349780147975
H           -0.78307746001104       -3.08872690982944       -0.81403712683760
H           -2.08497070079781       -2.32033259937888        0.11750923210302
H            1.78724228372577       -3.07037845590171       -0.17186843789986

 Bond Distances (Angstroems)
 ---------------------------
C1-N2=1.4350         C1-H15=1.0929        C1-H16=1.0883        C1-H17=1.0917        N2-C1=1.4350         N2-C3=1.3180         
N2-C6=1.4078         C3-N2=1.3180         C3-N4=1.3356         C3-H18=1.0749        N4-C3=1.3356         N4-C5=1.4153         
N4-H25=1.0084        C5-N4=1.4153         C5-C6=1.4656         C5-N13=1.2558        C6-N2=1.4078         C6-C5=1.4656         
C6-C7=1.3262         C7-C6=1.3262         C7-O8=1.1565         O8-C7=1.1565         N9-C10=1.4030        N9-C11=1.1854        
C10-N9=1.4030        C10-H19=1.0903       C10-H20=1.0921       C10-H21=1.0916       C11-N9=1.1854        C11-O12=1.1592       
O12-C11=1.1592       N13-C5=1.2558        N13-C14=1.4278       C14-N13=1.4278       C14-H22=1.0937       C14-H23=1.0939       
C14-H24=1.0893       H15-C1=1.0929        H16-C1=1.0883        H17-C1=1.0917        H18-C3=1.0749        H19-C10=1.0903       
H20-C10=1.0921       H21-C10=1.0916       H22-C14=1.0937       H23-C14=1.0939       H24-C14=1.0893       H25-N4=1.0084        
 C  H  Rav=1.0899 sigma=0.0053  Rmin=1.0749  Rmax=1.0939    10
 C  C  Rav=1.3959 sigma=0.0697  Rmin=1.3262  Rmax=1.4656     2
 N  H  Rav=1.0084 sigma=0.0000  Rmin=1.0084  Rmax=1.0084     1
 N  C  Rav=1.3538 sigma=0.0822  Rmin=1.1854  Rmax=1.4350     9
 O  C  Rav=1.1578 sigma=0.0013  Rmin=1.1565  Rmax=1.1592     2

 selected bond angles (degree)
 --------------------
H15-C1-N2=110.26               H16-C1-N2=109.78               H16-C1-H15=109.06              H17-C1-N2=110.05               
H17-C1-H15=108.52              H17-C1-H16=109.14              C3-N2-C1=127.66                C6-N2-C1=123.57                
C6-N2-C3=108.77                N4-C3-N2=111.12                H18-C3-N2=124.19               H18-C3-N4=124.69               
C5-N4-C3=110.42                H25-N4-C3=125.35               H25-N4-C5=124.23               C6-C5-N4=102.94                
N13-C5-N4=130.22               N13-C5-C6=126.84               C5-C6-N2=106.75                C7-C6-N2=126.03                
C7-C6-C5=127.22                O8-C7-C6=176.86                C11-N9-C10=152.30              H19-C10-N9=107.84              
H20-C10-N9=110.25              H20-C10-H19=108.96             H21-C10-N9=111.27              H21-C10-H19=109.22             
H21-C10-H20=109.25             

 selected dihedral angles (degree)
 ---------------------------------
C3-N2-C1-H15=245.25           C3-N2-C1-H16=  5.43           C3-N2-C1-H17=125.57           C6-N2-C1-H15= 64.72           
C6-N2-C1-H16=184.89           C6-N2-C1-H17=305.03           N4-C3-N2-C1=179.42            N4-C3-N2-C6=359.89            
H18-C3-N2-C1=359.46           H18-C3-N2-C6=179.93           C5-N4-C3-N2=  0.13            C5-N4-C3-H18=180.09           
H25-N4-C3-N2=180.12           H25-N4-C3-H18=  0.08          C6-C5-N4-C3=359.91            C6-C5-N4-H25=179.93           
N13-C5-N4-C3=179.74           N13-C5-N4-H25=359.75          C5-C6-N2-C1=180.50            C5-C6-N2-C3=  0.05            
C7-C6-N2-C1=  0.59            C7-C6-N2-C3=180.15            N2-C6-C5-N4=  0.00            N2-C6-C5-N13=180.19           
C7-C6-C5-N4=179.92            C7-C6-C5-N13=  0.09           O8-C7-C6-N2=173.57            O8-C7-C6-C5=353.68            
H19-C10-N9-C11=168.53         H20-C10-N9-C11=287.39         H21-C10-N9-C11= 48.77         
           -------------------------------------------------
          |                Final Singlepoint                |
           -------------------------------------------------

          ...................................................
          :                      SETUP                      :
          :.................................................:
          :  # basis functions                  67          :
          :  # atomic orbitals                  67          :
          :  # shells                           39          :
          :  # electrons                        74          :
          :  max. iterations                   250          :
          :  Hamiltonian                  GFN2-xTB          :
          :  restarted?                      false          :
          :  GBSA solvation                  false          :
          :  PC potential                    false          :
          :  electronic temp.         5000.0000000     K    :
          :  accuracy                    1.0000000          :
          :  -> integral cutoff          0.2500000E+02      :
          :  -> integral neglect         0.1000000E-07      :
          :  -> SCF convergence          0.1000000E-05 Eh   :
          :  -> wf. convergence          0.1000000E-03 e    :
          :  Broyden damping             0.4000000          :
          ...................................................

 iter      E             dE          RMSdq      gap      omega  full diag
   1    -42.7661720 -0.427662E+02  0.141E-04    2.30       0.0  T
   2    -42.7661720 -0.110013E-09  0.103E-04    2.30     194.5  T
   3    -42.7661720 -0.262446E-09  0.479E-05    2.30     417.8  T

   *** convergence criteria satisfied after 3 iterations ***

         #    Occupation            Energy/Eh            Energy/eV
      -------------------------------------------------------------
         1        2.0000           -0.9098095             -24.7572
       ...           ...                  ...                  ...
        31        1.9997           -0.6124446             -16.6655
        32        1.9994           -0.6013107             -16.3625
        33        1.9991           -0.5953064             -16.1991
        34        1.9384           -0.5277730             -14.3614
        35        1.9300           -0.5256663             -14.3041
        36        1.9149           -0.5224587             -14.2168
        37        1.8962           -0.5191626             -14.1271 (HOMO)
        38        0.1618           -0.4346799             -11.8282 (LUMO)
        39        0.1581           -0.4342817             -11.8174
        40        0.0031           -0.3709891             -10.0951
        41        0.0000           -0.2893818              -7.8745
        42        0.0000           -0.2880350              -7.8378
       ...           ...                  ...                  ...
        67                          1.2459282              33.9034
      -------------------------------------------------------------
                  HL-Gap            0.0844827 Eh            2.2989 eV
             Fermi-level           -0.4731594 Eh          -12.8753 eV

 SCC (total)                   0 d,  0 h,  0 min,  0.021 sec
 SCC setup                      ...        0 min,  0.000 sec (  0.926%)
 Dispersion                     ...        0 min,  0.000 sec (  0.800%)
 classical contributions        ...        0 min,  0.000 sec (  0.339%)
 integral evaluation            ...        0 min,  0.004 sec ( 18.825%)
 iterations                     ...        0 min,  0.005 sec ( 21.990%)
 molecular gradient             ...        0 min,  0.012 sec ( 56.536%)
 printout                       ...        0 min,  0.000 sec (  0.533%)

         :::::::::::::::::::::::::::::::::::::::::::::::::::::
         ::                     SUMMARY                     ::
         :::::::::::::::::::::::::::::::::::::::::::::::::::::
         :: total energy             -42.144885866377 Eh    ::
         :: gradient norm              0.003737158469 Eh/a0 ::
         :: HOMO-LUMO gap              2.298890030154 eV    ::
         ::.................................................::
         :: SCC energy               -42.766172049991 Eh    ::
         :: -> isotropic ES            0.115688505964 Eh    ::
         :: -> anisotropic ES         -0.002770875856 Eh    ::
         :: -> anisotropic XC          0.024952717138 Eh    ::
         :: -> dispersion             -0.017543116046 Eh    ::
         :: repulsion energy           0.621238488615 Eh    ::
         :: add. restraining           0.000000065924 Eh    ::
         :: total charge               1.000000000000 e     ::
         :::::::::::::::::::::::::::::::::::::::::::::::::::::

           -------------------------------------------------
          |                Property Printout                |
           -------------------------------------------------

    * Orbital Energies and Occupations

         #    Occupation            Energy/Eh            Energy/eV
      -------------------------------------------------------------
         1        2.0000           -0.9098095             -24.7572
       ...           ...                  ...                  ...
        25        2.0000           -0.6494120             -17.6714
        26        2.0000           -0.6427033             -17.4888
        27        1.9999           -0.6406263             -17.4323
        28        1.9999           -0.6397059             -17.4073
        29        1.9997           -0.6150437             -16.7362
        30        1.9997           -0.6126896             -16.6721
        31        1.9997           -0.6124446             -16.6655
        32        1.9994           -0.6013107             -16.3625
        33        1.9991           -0.5953064             -16.1991
        34        1.9384           -0.5277730             -14.3614
        35        1.9300           -0.5256663             -14.3041
        36        1.9149           -0.5224587             -14.2168
        37        1.8962           -0.5191626             -14.1271 (HOMO)
        38        0.1618           -0.4346799             -11.8282 (LUMO)
        39        0.1581           -0.4342817             -11.8174
        40        0.0031           -0.3709891             -10.0951
        41        0.0000           -0.2893818              -7.8745
        42        0.0000           -0.2880350              -7.8378
        43        0.0000           -0.2711813              -7.3792
        44                         -0.1793693              -4.8809
        45                         -0.1449491              -3.9443
        46                         -0.0890033              -2.4219
        47                         -0.0615005              -1.6735
        48                         -0.0476607              -1.2969
       ...                                ...                  ...
        67                          1.2459282              33.9034
      -------------------------------------------------------------
                  HL-Gap            0.0844827 Eh            2.2989 eV
             Fermi-level           -0.4731594 Eh          -12.8753 eV

     #   Z          covCN         q      C6AA      α(0)
     1   6 C        3.691    -0.084    22.293     6.757
     2   7 N        2.802     0.058    20.220     6.679
     3   6 C        2.958     0.079    26.228     8.400
     4   7 N        2.772    -0.091    23.020     7.126
     5   6 C        2.927     0.155    24.637     8.140
     6   6 C        3.041    -0.021    28.485     8.754
     7   6 C        1.844     0.252    25.333     8.131
     8   8 O        0.856    -0.120    16.808     5.497
     9   7 N        1.820    -0.140    24.819     7.382
    10   6 C        3.685    -0.032    21.347     6.615
    11   6 C        1.769     0.313    24.196     7.953
    12   8 O        0.856    -0.257    19.020     5.847
    13   7 N        1.824    -0.212    26.443     7.620
    14   6 C        3.701    -0.042    21.482     6.628
    15   1 H        0.924     0.102     1.768     2.079
    16   1 H        0.925     0.103     1.761     2.075
    17   1 H        0.924     0.101     1.778     2.085
    18   1 H        0.926     0.114     1.665     2.018
    19   1 H        0.924     0.093     1.852     2.128
    20   1 H        0.924     0.090     1.875     2.141
    21   1 H        0.924     0.087     1.908     2.160
    22   1 H        0.924     0.068     2.108     2.271
    23   1 H        0.924     0.061     2.188     2.313
    24   1 H        0.925     0.102     1.763     2.076
    25   1 H        0.860     0.219     1.012     1.576

 Mol. C6AA /au·bohr⁶  :       6676.660290
 Mol. C8AA /au·bohr⁸  :     152876.636837
 Mol. α(0) /au        :        124.449280


Wiberg/Mayer (AO) data.
largest (>0.10) Wiberg bond orders for each atom

 ---------------------------------------------------------------------------
     #   Z sym  total        # sym  WBO       # sym  WBO       # sym  WBO
 ---------------------------------------------------------------------------
     1   6 C    3.934 --     2 N    0.994    16 H    0.973    17 H    0.964
                            15 H    0.961
     2   7 N    3.619 --     3 C    1.402     6 C    1.041     1 C    0.994
                             4 N    0.112
     3   6 C    3.841 --     2 N    1.402     4 N    1.319    18 H    0.949
     4   7 N    3.537 --     3 C    1.319     5 C    1.031    25 H    0.923
                             2 N    0.112
     5   6 C    3.927 --    13 N    1.709     6 C    1.043     4 N    1.031
     6   6 C    3.872 --     7 C    1.479     5 C    1.043     2 N    1.041
                             8 O    0.151
     7   6 C    3.699 --     8 O    2.080     6 C    1.479
     8   8 O    2.354 --     7 C    2.080     6 C    0.151
     9   7 N    3.361 --    11 C    1.986    10 C    1.026    12 O    0.348
    10   6 C    3.922 --     9 N    1.026    19 H    0.959    21 H    0.951
                            20 H    0.949
    11   6 C    3.936 --     9 N    1.986    12 O    1.881
    12   8 O    2.272 --    11 C    1.881     9 N    0.348
    13   7 N    3.016 --     5 C    1.709    14 C    1.028
    14   6 C    3.941 --    13 N    1.028    24 H    0.961    23 H    0.955
                            22 H    0.951
    15   1 H    0.986 --     1 C    0.961
    16   1 H    0.989 --     1 C    0.973
    17   1 H    0.987 --     1 C    0.964
    18   1 H    0.984 --     3 C    0.949
    19   1 H    0.979 --    10 C    0.959
    20   1 H    0.974 --    10 C    0.949
    21   1 H    0.976 --    10 C    0.951
    22   1 H    0.979 --    14 C    0.951
    23   1 H    0.980 --    14 C    0.955
    24   1 H    0.977 --    14 C    0.961
    25   1 H    0.950 --     4 N    0.923
 ---------------------------------------------------------------------------

Topologies differ in total number of bonds
Writing topology from bond orders to xtbtopo.mol

molecular dipole:
                 x           y           z       tot (Debye)
 q only:        3.027      -0.199      -0.114
   full:        3.304      -0.615      -0.156       8.553
molecular quadrupole (traceless):
                xx          xy          yy          xz          yz          zz
 q only:       29.193     -20.558      -0.682      -1.210       0.426     -28.511
  q+dip:       30.623     -25.294      -0.223      -1.584       0.689     -30.401
   full:       31.095     -24.395      -2.449      -1.362       0.461     -28.646

           -------------------------------------------------
          |                Geometry Summary                 |
           -------------------------------------------------

      molecular mass/u    :      195.1988581
   center of mass at/Å    :       -0.0674644      -0.0539999       0.0268215
  moments of inertia/u·Å² :        0.5011278E+03   0.1549021E+04   0.2033351E+04
rotational constants/cm⁻¹ :        0.3363939E-01   0.1088277E-01   0.8290565E-02

 * 23 selected distances

     #   Z          #   Z                                           value/Å
     1   6 C        2   7 N                                       1.4350289 (max)
     2   7 N        3   6 C                                       1.3180059
     3   6 C        4   7 N                                       1.3356201
     4   7 N        5   6 C                                       1.4153373
     2   7 N        6   6 C                                       1.4078360
     6   6 C        7   6 C                                       1.3262046
     7   6 C        8   8 O                                       1.1564790
     9   7 N       10   6 C                                       1.4030177
     9   7 N       11   6 C                                       1.1854450
    11   6 C       12   8 O                                       1.1591563
     5   6 C       13   7 N                                       1.2558244
    13   7 N       14   6 C                                       1.4277878
     1   6 C       15   1 H                                       1.0929491
     1   6 C       16   1 H                                       1.0883320
     1   6 C       17   1 H                                       1.0916735
     3   6 C       18   1 H                                       1.0749133
    10   6 C       19   1 H                                       1.0903135
    10   6 C       20   1 H                                       1.0921432
    10   6 C       21   1 H                                       1.0916485
    14   6 C       22   1 H                                       1.0937300
    14   6 C       23   1 H                                       1.0939183
    14   6 C       24   1 H                                       1.0892927
     4   7 N       25   1 H                                       1.0084282 (min)

 * 5 distinct bonds (by element types)

   Z      Z             #   av. dist./Å        max./Å        min./Å
   1 H    6 C          10     1.0898914     1.0939183     1.0749133
   6 C    6 C           1     1.3262046     1.3262046     1.3262046
   1 H    7 N           1     1.0084282     1.0084282     1.0084282
   6 C    7 N           9     1.3537670     1.4350289     1.1854450
   6 C    8 O           2     1.1578177     1.1591563     1.1564790


optimized geometry written to: xtbopt.xyz


           -------------------------------------------------
          | TOTAL ENERGY              -42.144885866377 Eh   |
          | GRADIENT NORM               0.003737158469 Eh/α |
          | HOMO-LUMO GAP               2.298890030154 eV   |
           -------------------------------------------------

------------------------------------------------------------------------
 * finished run on 2024/06/05 at 19:59:16.206     
------------------------------------------------------------------------
 total:
 * wall-time:     0 d,  0 h,  0 min,  1.999 sec
 *  cpu-time:     0 d,  0 h,  0 min,  1.971 sec
 * ratio c/w:     0.986 speedup
 SCF:
 * wall-time:     0 d,  0 h,  0 min,  0.038 sec
 *  cpu-time:     0 d,  0 h,  0 min,  0.038 sec
 * ratio c/w:     0.997 speedup
 ANC optimizer:
 * wall-time:     0 d,  0 h,  0 min,  1.928 sec
 *  cpu-time:     0 d,  0 h,  0 min,  1.923 sec
 * ratio c/w:     0.997 speedup

