      -----------------------------------------------------------      
     |                   =====================                   |     
     |                           x T B                           |     
     |                   =====================                   |     
     |                         S. Grimme                         |     
     |          Mulliken Center for Theoretical Chemistry        |     
     |                    University of Bonn                     |     
      -----------------------------------------------------------      

   * xtb version 6.6.1 (8d0f1dd) compiled by 'conda@1efc2f54142f' on 2023-08-01

   xtb is free software: you can redistribute it and/or modify it under
   the terms of the GNU Lesser General Public License as published by
   the Free Software Foundation, either version 3 of the License, or
   (at your option) any later version.
   
   xtb is distributed in the hope that it will be useful,
   but WITHOUT ANY WARRANTY; without even the implied warranty of
   MERCHANTABILITY or FITNESS FOR A PARTICULAR PURPOSE.  See the
   GNU Lesser General Public License for more details.
   
   Cite this work as:
   * C. Bannwarth, E. Caldeweyher, S. Ehlert, A. Hansen, P. Pracht,
     J. Seibert, S. Spicher, S. Grimme, WIREs Comput. Mol. Sci., 2020, 11,
     e01493. DOI: 10.1002/wcms.1493
   
   for GFN2-xTB:
   * C. Bannwarth, S. Ehlert and S. Grimme., J. Chem. Theory Comput., 2019,
     15, 1652-1671. DOI: 10.1021/acs.jctc.8b01176
   for GFN1-xTB:
   * S. Grimme, C. Bannwarth, P. Shushkov, J. Chem. Theory Comput., 2017,
     13, 1989-2009. DOI: 10.1021/acs.jctc.7b00118
   for GFN0-xTB:
   * P. Pracht, E. Caldeweyher, S. Ehlert, S. Grimme, ChemRxiv, 2019, preprint.
     DOI: 10.26434/chemrxiv.8326202.v1
   for GFN-FF:
   * S. Spicher and S. Grimme, Angew. Chem. Int. Ed., 2020, 59, 15665-15673.
     DOI: 10.1002/anie.202004239
   
   for ALPB and GBSA implicit solvation:
   * S. Ehlert, M. Stahn, S. Spicher, S. Grimme, J. Chem. Theory Comput.,
     2021, 17, 4250-4261. DOI: 10.1021/acs.jctc.1c00471
   
   for DFT-D4:
   * E. Caldeweyher, C. Bannwarth and S. Grimme, J. Chem. Phys., 2017,
     147, 034112. DOI: 10.1063/1.4993215
   * E. Caldeweyher, S. Ehlert, A. Hansen, H. Neugebauer, S. Spicher,
     C. Bannwarth and S. Grimme, J. Chem. Phys., 2019, 150, 154122.
     DOI: 10.1063/1.5090222
   * E. Caldeweyher, J.-M. Mewes, S. Ehlert and S. Grimme, Phys. Chem. Chem. Phys.
     2020, 22, 8499-8512. DOI: 10.1039/D0CP00502A
   
   for sTDA-xTB:
   * S. Grimme and C. Bannwarth, J. Chem. Phys., 2016, 145, 054103.
     DOI: 10.1063/1.4959605
   
   in the mass-spec context:
   * V. Asgeirsson, C. Bauer and S. Grimme, Chem. Sci., 2017, 8, 4879.
     DOI: 10.1039/c7sc00601b
   * J. Koopman and S. Grimme, ACS Omega 2019, 4, 12, 15120-15133.
     DOI: 10.1021/acsomega.9b02011
   
   for metadynamics refer to:
   * S. Grimme, J. Chem. Theory Comput., 2019, 155, 2847-2862
     DOI: 10.1021/acs.jctc.9b00143
   
   for SPH calculations refer to:
   * S. Spicher and S. Grimme, J. Chem. Theory Comput., 2021, 17, 1701-1714
     DOI: 10.1021/acs.jctc.0c01306
   
   with help from (in alphabetical order)
   P. Atkinson, C. Bannwarth, F. Bohle, G. Brandenburg, E. Caldeweyher
   M. Checinski, S. Dohm, S. Ehlert, S. Ehrlich, I. Gerasimov, C. Hölzer
   A. Katbashev, J. Koopman, C. Lavigne, S. Lehtola, F. März, M. Müller,
   F. Musil, H. Neugebauer, J. Pisarek, C. Plett, P. Pracht, F. Pultar,
   J. Seibert, P. Shushkov, S. Spicher, M. Stahn, M. Steiner, T. Strunk,
   J. Stückrath, T. Rose, and J. Unsleber
   
 * started run on 2024/06/05 at 19:58:06.707     

           -------------------------------------------------
          |                Calculation Setup                |
           -------------------------------------------------

          program call               : xtb struc.xyz --opt loose --input .xc1 --gfn2
          hostname                   : n-62-31-11
          coordinate file            : struc.xyz
          omp threads                :                     1

   ID    Z sym.   atoms
    1    6 C      1, 3, 5-7, 10, 11, 14
    2    7 N      2, 4, 9, 13
    3    8 O      8, 12
    4    1 H      15-25
constraining bond 5 18 to    3.7133300 Å, actual value:    3.2287314 Å

           -------------------------------------------------
          |                 G F N 2 - x T B                 |
           -------------------------------------------------

        Reference                      10.1021/acs.jctc.8b01176
      * Hamiltonian:
        H0-scaling (s, p, d)           1.850000    2.230000    2.230000
        zeta-weighting                 0.500000
      * Dispersion:
        s8                             2.700000
        a1                             0.520000
        a2                             5.000000
        s9                             5.000000
      * Repulsion:
        kExp                           1.500000    1.000000
        rExp                           1.000000
      * Coulomb:
        alpha                          2.000000
        third order                    shell-resolved
        anisotropic                    true
        a3                             3.000000
        a5                             4.000000
        cn-shift                       1.200000
        cn-exp                         4.000000
        max-rad                        5.000000


          ...................................................
          :                      SETUP                      :
          :.................................................:
          :  # basis functions                  67          :
          :  # atomic orbitals                  67          :
          :  # shells                           39          :
          :  # electrons                        74          :
          :  max. iterations                   250          :
          :  Hamiltonian                  GFN2-xTB          :
          :  restarted?                      false          :
          :  GBSA solvation                  false          :
          :  PC potential                    false          :
          :  electronic temp.         5000.0000000     K    :
          :  accuracy                    1.0000000          :
          :  -> integral cutoff          0.2500000E+02      :
          :  -> integral neglect         0.1000000E-07      :
          :  -> SCF convergence          0.1000000E-05 Eh   :
          :  -> wf. convergence          0.1000000E-03 e    :
          :  Broyden damping             0.4000000          :
          ...................................................

 iter      E             dE          RMSdq      gap      omega  full diag
   1    -42.5894031 -0.425894E+02  0.445E+00    3.52       0.0  T
   2    -42.7683054 -0.178902E+00  0.251E+00    3.36       1.0  T
   3    -42.7759211 -0.761567E-02  0.147E+00    3.35       1.0  T
   4    -42.7728404  0.308066E-02  0.553E-01    3.33       1.0  T
   5    -42.7789548 -0.611444E-02  0.112E-01    3.35       1.0  T
   6    -42.7790473 -0.924914E-04  0.614E-02    3.33       1.0  T
   7    -42.7790721 -0.247928E-04  0.258E-02    3.34       1.0  T
   8    -42.7790772 -0.508996E-05  0.938E-03    3.34       2.1  T
   9    -42.7790779 -0.669422E-06  0.448E-03    3.34       4.5  T
  10    -42.7790780 -0.821510E-07  0.115E-03    3.34      17.4  T
  11    -42.7790780 -0.322663E-08  0.553E-04    3.34      36.2  T
  12    -42.7790780 -0.287051E-08  0.180E-04    3.34     111.1  T

   *** convergence criteria satisfied after 12 iterations ***

         #    Occupation            Energy/Eh            Energy/eV
      -------------------------------------------------------------
         1        2.0000           -0.9185990             -24.9964
       ...           ...                  ...                  ...
        31        1.9996           -0.6230278             -16.9534
        32        1.9995           -0.6194601             -16.8564
        33        1.9979           -0.5974976             -16.2587
        34        1.9932           -0.5789629             -15.7544
        35        1.9817           -0.5631863             -15.3251
        36        1.9779           -0.5602245             -15.2445
        37        1.9748           -0.5581234             -15.1873 (HOMO)
        38        0.0652           -0.4353579             -11.8467 (LUMO)
        39        0.0099           -0.4050467             -11.0219
        40        0.0013           -0.3732218             -10.1559
        41        0.0000           -0.2886859              -7.8555
        42                         -0.2065804              -5.6213
       ...                                ...                  ...
        67                          0.5625656              15.3082
      -------------------------------------------------------------
                  HL-Gap            0.1227656 Eh            3.3406 eV
             Fermi-level           -0.4890455 Eh          -13.3076 eV

 SCC (total)                   0 d,  0 h,  0 min,  0.036 sec
 SCC setup                      ...        0 min,  0.000 sec (  0.739%)
 Dispersion                     ...        0 min,  0.000 sec (  0.803%)
 classical contributions        ...        0 min,  0.000 sec (  0.235%)
 integral evaluation            ...        0 min,  0.005 sec ( 14.219%)
 iterations                     ...        0 min,  0.017 sec ( 46.324%)
 molecular gradient             ...        0 min,  0.013 sec ( 37.253%)
 printout                       ...        0 min,  0.000 sec (  0.395%)

         :::::::::::::::::::::::::::::::::::::::::::::::::::::
         ::                     SUMMARY                     ::
         :::::::::::::::::::::::::::::::::::::::::::::::::::::
         :: total energy             -42.667165390139 Eh    ::
         :: gradient norm              1.296705901505 Eh/a0 ::
         :: HOMO-LUMO gap              3.340621582928 eV    ::
         ::.................................................::
         :: SCC energy               -42.779077977399 Eh    ::
         :: -> isotropic ES            0.141123876439 Eh    ::
         :: -> anisotropic ES         -0.005230418907 Eh    ::
         :: -> anisotropic XC          0.011966818540 Eh    ::
         :: -> dispersion             -0.022657731803 Eh    ::
         :: repulsion energy           0.531105277918 Eh    ::
         :: add. restraining          -0.419306849668 Eh    ::
         :: total charge               1.000000000002 e     ::
         :::::::::::::::::::::::::::::::::::::::::::::::::::::

      ----------------------------------------------------------- 
     |                   =====================                   |
     |                        A N C O P T                        |
     |                   =====================                   |
     |               Approximate Normal Coordinate               |
     |                Rational Function Optimizer                |
      ----------------------------------------------------------- 

          ...................................................
          :                      SETUP                      :
          :.................................................:
          :   optimization level             loose          :
          :   max. optcycles                   200          :
          :   ANC micro-cycles                  20          :
          :   degrees of freedom                69          :
          :.................................................:
          :   RF solver                   davidson          :
          :   write xtbopt.log                true          :
          :   linear?                        false          :
          :   energy convergence         0.5000000E-04 Eh   :
          :   grad. convergence          0.4000000E-02 Eh/α :
          :   maxmium RF displ.          1.0000000          :
          :   Hlow (freq-cutoff)         0.1000000E-01      :
          :   Hmax (freq-cutoff)         5.0000000          :
          :   S6 in model hess.         20.0000000          :
          ...................................................

generating ANC from model Hessian ...
Using Lindh-Hessian (1995)
 Shifting diagonal of input Hessian by    1.3114909501872083     
 Lowest  eigenvalues of input Hessian
    0.010000    0.000000    0.000000    0.000000    0.000000    0.000000
    0.000000    1.314549    1.317039    1.317474    1.320662    1.321785
    1.323519    1.323581    1.325939    1.334386    1.336660    1.351451
 Highest eigenvalues
    3.325024    3.438610    3.468664    3.594734    3.715786    3.843270


........................................................................
.............................. CYCLE    1 ..............................
........................................................................

 iter      E             dE          RMSdq      gap      omega  full diag
   1    -42.7790780 -0.427791E+02  0.626E-05    3.34       0.0  T
   2    -42.7790780 -0.124416E-10  0.329E-05    3.34     607.4  T
   3    -42.7790780  0.127898E-12  0.193E-05    3.34    1034.2  T
     SCC iter.                  ...        0 min,  0.005 sec
     gradient                   ...        0 min,  0.014 sec
 * total energy  :   -42.6671654 Eh     change       -0.6650680E-10 Eh
   gradient norm :     1.2967059 Eh/α   predicted     0.0000000E+00 (-100.00%)
   displ. norm   :     0.9866364 α      lambda       -0.1252398E+01
   maximum displ.:     0.9823970 α      in ANC's #1, #64, #41, ...

........................................................................
.............................. CYCLE    2 ..............................
........................................................................

 iter      E             dE          RMSdq      gap      omega  full diag
   1    -42.7391483 -0.427391E+02  0.178E+00    3.26       0.0  T
   2    -42.7571501 -0.180018E-01  0.105E+00    2.81       1.0  T
   3    -42.7582154 -0.106523E-02  0.533E-01    2.97       1.0  T
   4    -42.7587575 -0.542113E-03  0.127E-01    2.85       1.0  T
   5    -42.7589712 -0.213757E-03  0.331E-02    2.88       1.0  T
   6    -42.7589885 -0.172949E-04  0.224E-02    2.88       1.0  T
   7    -42.7589922 -0.369647E-05  0.435E-03    2.89       4.6  T
   8    -42.7589925 -0.278406E-06  0.104E-03    2.89      19.2  T
   9    -42.7589925 -0.284627E-08  0.470E-04    2.89      42.5  T
  10    -42.7589925 -0.677410E-09  0.126E-04    2.89     159.3  T
     SCC iter.                  ...        0 min,  0.014 sec
     gradient                   ...        0 min,  0.014 sec
 * total energy  :   -44.5259095 Eh     change       -0.1858744E+01 Eh
   gradient norm :     2.4476211 Eh/α   predicted    -0.1235773E+01 ( -33.52%)
   displ. norm   :     0.9784311 α      lambda       -0.2341669E+01
   maximum displ.:     0.9621783 α      in ANC's #1, #62, #67, ...

........................................................................
.............................. CYCLE    3 ..............................
........................................................................

 iter      E             dE          RMSdq      gap      omega  full diag
   1    -42.4113397 -0.424113E+02  0.203E+00    3.18       0.0  T
   2    -42.4108630  0.476632E-03  0.240E+00    0.83       1.0  T
   3    -42.5076964 -0.968333E-01  0.884E-01    2.00       1.0  T
   4    -42.4875021  0.201943E-01  0.984E-01    1.19       1.0  T
   5    -42.5076514 -0.201494E-01  0.323E-01    1.64       1.0  T
   6    -42.5099156 -0.226417E-02  0.536E-02    1.77       1.0  T
   7    -42.5099668 -0.511918E-04  0.219E-02    1.80       1.0  T
   8    -42.5099688 -0.206611E-05  0.694E-03    1.80       2.9  T
   9    -42.5099694 -0.518096E-06  0.219E-03    1.80       9.1  T
  10    -42.5099695 -0.103749E-06  0.858E-04    1.80      23.3  T
  11    -42.5099695 -0.531814E-08  0.348E-04    1.80      57.5  T
     SCC iter.                  ...        0 min,  0.015 sec
     gradient                   ...        0 min,  0.014 sec
 * total energy  :   -47.1699021 Eh     change       -0.2643993E+01 Eh
   gradient norm :     4.6338165 Eh/α   predicted    -0.2291708E+01 ( -13.32%)
   displ. norm   :     0.8695120 α      lambda       -0.3884208E+01
   maximum displ.:     0.6308230 α      in ANC's #1, #67, #45, ...

........................................................................
.............................. CYCLE    4 ..............................
........................................................................

 iter      E             dE          RMSdq      gap      omega  full diag
   1    -42.1935617 -0.421936E+02  0.185E+00    1.46       0.0  T
   2    -41.9676048  0.225957E+00  0.323E+00    0.44       1.0  T
   3    -42.2292432 -0.261638E+00  0.122E+00    0.83       1.0  T
   4    -42.1756632  0.535800E-01  0.148E+00    0.46       1.0  T
   5    -42.2343316 -0.586683E-01  0.213E-01    0.92       1.0  T
   6    -42.2361344 -0.180284E-02  0.502E-02    1.01       1.0  T
   7    -42.2360873  0.471120E-04  0.545E-02    1.04       1.0  T
   8    -42.2360505  0.368128E-04  0.536E-02    1.04       1.0  T
   9    -42.2361508 -0.100355E-03  0.136E-02    1.02       1.5  T
  10    -42.2361572 -0.635382E-05  0.312E-03    1.02       6.4  T
  11    -42.2361574 -0.262006E-06  0.841E-04    1.02      23.8  T
  12    -42.2361575 -0.237034E-07  0.268E-04    1.02      74.5  T
     SCC iter.                  ...        0 min,  0.016 sec
     gradient                   ...        0 min,  0.014 sec
 * total energy  :   -50.4723375 Eh     change       -0.3302435E+01 Eh
   gradient norm :     5.0427265 Eh/α   predicted    -0.3410678E+01 (   3.28%)
   displ. norm   :     0.9555879 α      lambda       -0.4135627E+01
   maximum displ.:     0.8672311 α      in ANC's #1, #67, #45, ...

........................................................................
.............................. CYCLE    5 ..............................
........................................................................

 iter      E             dE          RMSdq      gap      omega  full diag
   1    -41.9840831 -0.419841E+02  0.540E+00    0.22       0.0  T
   2    -41.9324763  0.516068E-01  0.266E+00    1.79       1.0  T
   3    -41.6683195  0.264157E+00  0.384E+00    0.65       1.0  T
   4    -41.9370496 -0.268730E+00  0.265E+00    1.28       1.0  T
   5    -42.1176717 -0.180622E+00  0.696E-01    0.99       1.0  T
   6    -42.1274324 -0.976070E-02  0.234E-01    0.76       1.0  T
   7    -42.1293680 -0.193561E-02  0.115E-01    0.66       1.0  T
   8    -42.1296523 -0.284249E-03  0.656E-02    0.72       1.0  T
   9    -42.1297576 -0.105296E-03  0.123E-02    0.70       1.6  T
  10    -42.1297590 -0.142495E-05  0.448E-03    0.70       4.5  T
  11    -42.1297590 -0.289884E-07  0.250E-03    0.70       8.0  T
  12    -42.1297591 -0.791631E-07  0.113E-03    0.70      17.7  T
  13    -42.1297591 -0.340098E-07  0.265E-04    0.70      75.5  T
  14    -42.1297591 -0.992173E-09  0.102E-04    0.70     197.0  T
     SCC iter.                  ...        0 min,  0.018 sec
     gradient                   ...        0 min,  0.013 sec
 * total energy  :   -54.2218862 Eh     change       -0.3749549E+01 Eh
   gradient norm :     8.0254248 Eh/α   predicted    -0.3956034E+01 (   5.51%)
   displ. norm   :     0.8990036 α      lambda       -0.5398308E+01
   maximum displ.:     0.7265691 α      in ANC's #1, #62, #64, ...

........................................................................
.............................. CYCLE    6 ..............................
........................................................................

 iter      E             dE          RMSdq      gap      omega  full diag
   1    -42.2447648 -0.422448E+02  0.194E+00    0.11       0.0  T
   2    -42.1322941  0.112471E+00  0.258E+00    1.89       1.0  T
   3    -42.3447005 -0.212406E+00  0.818E-01    0.83       1.0  T
   4    -42.3427011  0.199941E-02  0.471E-01    0.78       1.0  T
   5    -42.3412378  0.146337E-02  0.391E-01    0.60       1.0  T
   6    -42.3457163 -0.447852E-02  0.189E-01    0.77       1.0  T
   7    -42.3470527 -0.133642E-02  0.376E-02    0.73       1.0  T
   8    -42.3470754 -0.227433E-04  0.227E-02    0.72       1.0  T
   9    -42.3470842 -0.874857E-05  0.699E-03    0.73       2.9  T
  10    -42.3470848 -0.577353E-06  0.229E-03    0.73       8.7  T
  11    -42.3470847  0.648151E-07  0.184E-03    0.73      10.9  T
  12    -42.3470848 -0.109347E-06  0.629E-04    0.73      31.8  T
  13    -42.3470848 -0.121249E-07  0.132E-04    0.73     151.4  T
     SCC iter.                  ...        0 min,  0.017 sec
     gradient                   ...        0 min,  0.014 sec
 * total energy  :   -57.0676458 Eh     change       -0.2845760E+01 Eh
   gradient norm :     7.3001128 Eh/α   predicted    -0.4880629E+01 (  71.51%)
   displ. norm   :     0.6879340 α      lambda       -0.4131528E+01
   maximum displ.:     0.3125826 α      in ANC's #62, #45, #36, ...

........................................................................
.............................. CYCLE    7 ..............................
........................................................................

 iter      E             dE          RMSdq      gap      omega  full diag
   1    -42.1285019 -0.421285E+02  0.310E+00    0.21       0.0  T
   2    -41.7865625  0.341939E+00  0.375E+00    1.15       1.0  T
   3    -42.3127856 -0.526223E+00  0.114E+00    0.18       1.0  T
   4    -42.2954602  0.173253E-01  0.960E-01    0.23       1.0  T
   5    -42.3221317 -0.266715E-01  0.373E-01    0.40       1.0  T
   6    -42.3245369 -0.240524E-02  0.155E-01    0.30       1.0  T
   7    -42.3251216 -0.584638E-03  0.603E-02    0.31       1.0  T
   8    -42.3251685 -0.469682E-04  0.349E-02    0.32       1.0  T
   9    -42.3251866 -0.180676E-04  0.164E-02    0.32       1.2  T
  10    -42.3251936 -0.704147E-05  0.321E-03    0.32       6.2  T
  11    -42.3251925  0.114371E-05  0.561E-03    0.32       3.6  T
  12    -42.3251940 -0.153873E-05  0.955E-04    0.32      21.0  T
  13    -42.3251941 -0.100198E-07  0.384E-04    0.32      52.1  T
  14    -42.3251941 -0.430089E-08  0.105E-04    0.32     190.6  T
     SCC iter.                  ...        0 min,  0.018 sec
     gradient                   ...        0 min,  0.014 sec
 * total energy  :   -58.1095547 Eh     change       -0.1041909E+01 Eh
   gradient norm :     5.1609104 Eh/α   predicted    -0.3043396E+01 ( 192.10%)
   displ. norm   :     0.6472059 α      lambda       -0.1713482E+01
   maximum displ.:     0.2591586 α      in ANC's #36, #62, #39, ...

........................................................................
.............................. CYCLE    8 ..............................
........................................................................

 iter      E             dE          RMSdq      gap      omega  full diag
   1    -42.0809189 -0.420809E+02  0.209E+00    0.18       0.0  T
   2    -41.3089167  0.772002E+00  0.441E+00    0.82       1.0  T
   3    -42.2254883 -0.916572E+00  0.167E+00    0.20       1.0  T
   4    -42.2632779 -0.377896E-01  0.125E+00    0.10       1.0  T
   5    -42.2512985  0.119794E-01  0.110E+00    0.23       1.0  T
   6    -42.2773964 -0.260979E-01  0.363E-01    0.03       1.0  T
   7    -42.2801375 -0.274106E-02  0.143E-01    0.03       1.0  T
   8    -42.2806267 -0.489172E-03  0.653E-02    0.04       1.0  T
   9    -42.2806502 -0.234763E-04  0.409E-02    0.04       1.0  T
  10    -42.2806992 -0.490695E-04  0.195E-02    0.04       1.0  T
  11    -42.2807046 -0.537616E-05  0.656E-03    0.04       3.1  T
  12    -42.2807046 -0.433966E-07  0.608E-03    0.04       3.3  T
  13    -42.2807054 -0.761855E-06  0.209E-03    0.05       9.6  T
  14    -42.2807055 -0.110450E-06  0.266E-04    0.05      75.2  T
  15    -42.2807055 -0.697703E-09  0.105E-04    0.05     189.9  T
     SCC iter.                  ...        0 min,  0.020 sec
     gradient                   ...        0 min,  0.014 sec
 * total energy  :   -58.8673022 Eh     change       -0.7577476E+00 Eh
   gradient norm :     3.3757784 Eh/α   predicted    -0.1215610E+01 (  60.42%)
   displ. norm   :     0.7322789 α      lambda       -0.1830759E+01
   maximum displ.:     0.5134583 α      in ANC's #1, #39, #45, ...

........................................................................
.............................. CYCLE    9 ..............................
........................................................................

 iter      E             dE          RMSdq      gap      omega  full diag
   1    -42.2237094 -0.422237E+02  0.193E+00    0.17       0.0  T
   2    -42.1910993  0.326101E-01  0.174E+00    0.05       1.0  T
   3    -42.2310438 -0.399445E-01  0.119E+00    0.15       1.0  T
   4    -42.2580089 -0.269651E-01  0.768E-01    0.05       1.0  T
   5    -42.2763745 -0.183657E-01  0.513E-01    0.15       1.0  T
   6    -42.2855733 -0.919877E-02  0.223E-01    0.14       1.0  T
   7    -42.2869666 -0.139329E-02  0.703E-02    0.14       1.0  T
   8    -42.2871490 -0.182385E-03  0.165E-02    0.13       1.2  T
   9    -42.2871501 -0.109707E-05  0.733E-03    0.13       2.7  T
  10    -42.2871512 -0.109894E-05  0.292E-03    0.13       6.9  T
  11    -42.2871514 -0.201859E-06  0.150E-03    0.13      13.4  T
  12    -42.2871514 -0.183968E-07  0.718E-04    0.13      27.9  T
  13    -42.2871514 -0.183130E-07  0.201E-04    0.13      99.6  T
     SCC iter.                  ...        0 min,  0.017 sec
     gradient                   ...        0 min,  0.013 sec
 * total energy  :   -55.7156112 Eh     change        0.3151691E+01 Eh
   gradient norm :    35.8193995 Eh/α   predicted    -0.1406236E+01 (-144.62%)
   displ. norm   :     0.2852383 α      lambda       -0.7083583E+01
   maximum displ.:     0.1614474 α      in ANC's #67, #1, #45, ...

........................................................................
.............................. CYCLE   10 ..............................
........................................................................

 iter      E             dE          RMSdq      gap      omega  full diag
   1    -42.2150922 -0.422151E+02  0.162E+00    0.10       0.0  T
   2    -41.9836452  0.231447E+00  0.273E+00    0.17       1.0  T
   3    -42.2464576 -0.262812E+00  0.863E-01    0.04       1.0  T
   4    -42.2466146 -0.157020E-03  0.673E-01    0.27       1.0  T
   5    -42.2604786 -0.138639E-01  0.391E-01    0.01       1.0  T
   6    -42.2684458 -0.796721E-02  0.129E-01    0.11       1.0  T
   7    -42.2688303 -0.384491E-03  0.657E-02    0.11       1.0  T
   8    -42.2689192 -0.889391E-04  0.150E-02    0.10       1.3  T
   9    -42.2689252 -0.596454E-05  0.706E-03    0.10       2.8  T
  10    -42.2689256 -0.387547E-06  0.427E-03    0.10       4.7  T
  11    -42.2689257 -0.184892E-06  0.154E-03    0.10      13.0  T
  12    -42.2689258 -0.278740E-07  0.976E-04    0.10      20.5  T
  13    -42.2689258 -0.288701E-07  0.415E-04    0.10      48.2  T
     SCC iter.                  ...        0 min,  0.017 sec
     gradient                   ...        0 min,  0.013 sec
 * total energy  :   -59.0617639 Eh     change       -0.3346153E+01 Eh
   gradient norm :     2.9951073 Eh/α   predicted    -0.3829954E+01 (  14.46%)
   displ. norm   :     0.6749878 α      lambda       -0.5996575E+00
   maximum displ.:     0.4158664 α      in ANC's #1, #67, #39, ...

........................................................................
.............................. CYCLE   11 ..............................
........................................................................

 iter      E             dE          RMSdq      gap      omega  full diag
   1    -42.2095692 -0.422096E+02  0.156E+00    0.25       0.0  T
   2    -41.7967226  0.412847E+00  0.345E+00    0.09       1.0  T
   3    -42.2107690 -0.414046E+00  0.108E+00    0.05       1.0  T
   4    -42.1965225  0.142466E-01  0.113E+00    0.28       1.0  T
   5    -42.2345353 -0.380128E-01  0.653E-01    0.02       1.0  T
   6    -42.2550169 -0.204817E-01  0.294E-01    0.19       1.0  T
   7    -42.2570043 -0.198735E-02  0.139E-01    0.16       1.0  T
   8    -42.2575911 -0.586826E-03  0.370E-02    0.15       1.0  T
   9    -42.2576191 -0.279637E-04  0.239E-02    0.14       1.0  T
  10    -42.2576436 -0.245238E-04  0.827E-03    0.14       2.4  T
  11    -42.2576450 -0.139380E-05  0.335E-03    0.14       6.0  T
  12    -42.2576452 -0.164993E-06  0.793E-04    0.14      25.2  T
  13    -42.2576452 -0.261997E-08  0.533E-04    0.14      37.5  T
     SCC iter.                  ...        0 min,  0.017 sec
     gradient                   ...        0 min,  0.013 sec
 * total energy  :   -58.2627800 Eh     change        0.7989839E+00 Eh
   gradient norm :     6.0363087 Eh/α   predicted    -0.4364332E+00 (-154.62%)
   displ. norm   :     0.3577936 α      lambda       -0.1639965E+01
   maximum displ.:     0.2894797 α      in ANC's #1, #67, #64, ...

........................................................................
.............................. CYCLE   12 ..............................
........................................................................

 iter      E             dE          RMSdq      gap      omega  full diag
   1    -42.2157452 -0.422157E+02  0.106E+00    0.00       0.0  T
   2    -42.0745283  0.141217E+00  0.183E+00    0.52       1.0  T
   3    -42.2000146 -0.125486E+00  0.904E-01    0.08       1.0  T
   4    -42.2309485 -0.309339E-01  0.549E-01    0.04       1.0  T
   5    -42.2358652 -0.491668E-02  0.308E-01    0.03       1.0  T
   6    -42.2391782 -0.331299E-02  0.147E-01    0.05       1.0  T
   7    -42.2398474 -0.669261E-03  0.460E-02    0.06       1.0  T
   8    -42.2398616 -0.141163E-04  0.230E-02    0.06       1.0  T
   9    -42.2398734 -0.118148E-04  0.112E-02    0.06       1.8  T
  10    -42.2398794 -0.599167E-05  0.347E-03    0.06       5.8  T
  11    -42.2398794 -0.604074E-07  0.217E-03    0.06       9.2  T
  12    -42.2398795 -0.723121E-07  0.792E-04    0.06      25.2  T
  13    -42.2398795 -0.209998E-07  0.213E-04    0.06      93.7  T
     SCC iter.                  ...        0 min,  0.017 sec
     gradient                   ...        0 min,  0.013 sec
 * total energy  :   -59.2082425 Eh     change       -0.9454625E+00 Eh
   gradient norm :     0.8200216 Eh/α   predicted    -0.9249534E+00 (  -2.17%)
   displ. norm   :     0.3020707 α      lambda       -0.7651995E-01
   maximum displ.:     0.1329182 α      in ANC's #67, #36, #66, ...

........................................................................
.............................. CYCLE   13 ..............................
........................................................................

 iter      E             dE          RMSdq      gap      omega  full diag
   1    -42.2250137 -0.422250E+02  0.932E-01    0.13       0.0  T
   2    -42.1714623  0.535514E-01  0.139E+00    0.15       1.0  T
   3    -42.2212231 -0.497608E-01  0.679E-01    0.05       1.0  T
   4    -42.2426918 -0.214688E-01  0.304E-01    0.06       1.0  T
   5    -42.2443754 -0.168354E-02  0.189E-01    0.05       1.0  T
   6    -42.2451892 -0.813862E-03  0.759E-02    0.04       1.0  T
   7    -42.2453735 -0.184264E-03  0.274E-02    0.04       1.0  T
   8    -42.2453909 -0.173920E-04  0.133E-02    0.04       1.5  T
   9    -42.2453905  0.410579E-06  0.819E-03    0.04       2.4  T
  10    -42.2453929 -0.240273E-05  0.348E-03    0.04       5.7  T
  11    -42.2453930 -0.139699E-06  0.206E-03    0.04       9.7  T
  12    -42.2453931 -0.116565E-06  0.561E-04    0.04      35.6  T
  13    -42.2453931 -0.587180E-08  0.160E-04    0.04     124.8  T
     SCC iter.                  ...        0 min,  0.017 sec
     gradient                   ...        0 min,  0.013 sec
 * total energy  :   -59.2478326 Eh     change       -0.3959013E-01 Eh
   gradient norm :     0.3895394 Eh/α   predicted    -0.4175111E-01 (   5.46%)
   displ. norm   :     0.1948591 α      lambda       -0.3797662E-01
   maximum displ.:     0.0974336 α      in ANC's #39, #19, #50, ...

........................................................................
.............................. CYCLE   14 ..............................
........................................................................

 iter      E             dE          RMSdq      gap      omega  full diag
   1    -42.2318293 -0.422318E+02  0.418E-01    0.07       0.0  T
   2    -42.1930269  0.388024E-01  0.989E-01    0.21       1.0  T
   3    -42.2367628 -0.437359E-01  0.248E-01    0.11       1.0  T
   4    -42.2301798  0.658295E-02  0.402E-01    0.14       1.0  T
   5    -42.2368753 -0.669547E-02  0.203E-01    0.12       1.0  T
   6    -42.2380023 -0.112706E-02  0.323E-02    0.11       1.0  T
   7    -42.2380198 -0.174921E-04  0.164E-02    0.11       1.2  T
   8    -42.2380254 -0.559678E-05  0.707E-03    0.11       2.8  T
   9    -42.2380257 -0.240951E-06  0.310E-03    0.11       6.4  T
  10    -42.2380260 -0.320025E-06  0.137E-03    0.11      14.6  T
  11    -42.2380260 -0.522039E-07  0.691E-04    0.11      29.0  T
  12    -42.2380260 -0.110643E-07  0.248E-04    0.11      80.8  T
     SCC iter.                  ...        0 min,  0.016 sec
     gradient                   ...        0 min,  0.013 sec
 * total energy  :   -59.2723131 Eh     change       -0.2448049E-01 Eh
   gradient norm :     0.4162162 Eh/α   predicted    -0.1970930E-01 ( -19.49%)
   displ. norm   :     0.2588295 α      lambda       -0.3265328E-01
   maximum displ.:     0.1269052 α      in ANC's #19, #16, #39, ...

........................................................................
.............................. CYCLE   15 ..............................
........................................................................

 iter      E             dE          RMSdq      gap      omega  full diag
   1    -42.2343722 -0.422344E+02  0.375E-01    0.20       0.0  T
   2    -42.2323427  0.202954E-02  0.368E-01    0.24       1.0  T
   3    -42.2307625  0.158015E-02  0.265E-01    0.12       1.0  T
   4    -42.2266649  0.409758E-02  0.437E-01    0.27       1.0  T
   5    -42.2352260 -0.856103E-02  0.122E-01    0.22       1.0  T
   6    -42.2356798 -0.453771E-03  0.280E-02    0.21       1.0  T
   7    -42.2357019 -0.221881E-04  0.132E-02    0.21       1.5  T
   8    -42.2357034 -0.145807E-05  0.739E-03    0.21       2.7  T
   9    -42.2357042 -0.755107E-06  0.441E-03    0.21       4.5  T
  10    -42.2357047 -0.569485E-06  0.167E-03    0.21      12.0  T
  11    -42.2357048 -0.656189E-07  0.867E-04    0.21      23.1  T
  12    -42.2357048 -0.161011E-07  0.310E-04    0.21      64.6  T
     SCC iter.                  ...        0 min,  0.016 sec
     gradient                   ...        0 min,  0.013 sec
 * total energy  :   -59.2989717 Eh     change       -0.2665865E-01 Eh
   gradient norm :     0.3798846 Eh/α   predicted    -0.1742038E-01 ( -34.65%)
   displ. norm   :     0.4246041 α      lambda       -0.4320973E-01
   maximum displ.:     0.2167560 α      in ANC's #19, #16, #39, ...

........................................................................
.............................. CYCLE   16 ..............................
........................................................................

 iter      E             dE          RMSdq      gap      omega  full diag
   1    -42.2304764 -0.422305E+02  0.598E-01    0.33       0.0  T
   2    -42.2283887  0.208772E-02  0.467E-01    0.26       1.0  T
   3    -42.2241046  0.428410E-02  0.481E-01    0.36       1.0  T
   4    -42.2230316  0.107295E-02  0.389E-01    0.18       1.0  T
   5    -42.2320096 -0.897800E-02  0.171E-01    0.35       1.0  T
   6    -42.2329806 -0.970992E-03  0.458E-02    0.33       1.0  T
   7    -42.2330005 -0.199031E-04  0.361E-02    0.32       1.0  T
   8    -42.2330469 -0.463253E-04  0.146E-02    0.32       1.4  T
   9    -42.2330500 -0.315057E-05  0.603E-03    0.32       3.3  T
  10    -42.2330516 -0.159014E-05  0.187E-03    0.32      10.7  T
  11    -42.2330516 -0.336711E-07  0.118E-03    0.32      17.0  T
  12    -42.2330517 -0.415836E-07  0.372E-04    0.32      53.8  T
  13    -42.2330517 -0.208204E-08  0.162E-04    0.32     123.8  T
     SCC iter.                  ...        0 min,  0.017 sec
     gradient                   ...        0 min,  0.013 sec
 * total energy  :   -59.3285006 Eh     change       -0.2952888E-01 Eh
   gradient norm :     0.1905171 Eh/α   predicted    -0.2550014E-01 ( -13.64%)
   displ. norm   :     0.2864449 α      lambda       -0.1660805E-01
   maximum displ.:     0.1509725 α      in ANC's #19, #16, #64, ...

........................................................................
.............................. CYCLE   17 ..............................
........................................................................

 iter      E             dE          RMSdq      gap      omega  full diag
   1    -42.2312511 -0.422313E+02  0.425E-01    0.36       0.0  T
   2    -42.2158354  0.154156E-01  0.578E-01    0.18       1.0  T
   3    -42.2181127 -0.227728E-02  0.532E-01    0.39       1.0  T
   4    -42.2324691 -0.143564E-01  0.160E-01    0.34       1.0  T
   5    -42.2328449 -0.375748E-03  0.531E-02    0.35       1.0  T
   6    -42.2329154 -0.704713E-04  0.262E-02    0.35       1.0  T
   7    -42.2329382 -0.228482E-04  0.150E-02    0.34       1.3  T
   8    -42.2329438 -0.557216E-05  0.686E-03    0.34       2.9  T
   9    -42.2329443 -0.560867E-06  0.309E-03    0.34       6.5  T
  10    -42.2329447 -0.369647E-06  0.116E-03    0.34      17.3  T
  11    -42.2329448 -0.474297E-07  0.329E-04    0.34      60.8  T
  12    -42.2329448 -0.574701E-09  0.150E-04    0.34     133.3  T
     SCC iter.                  ...        0 min,  0.016 sec
     gradient                   ...        0 min,  0.013 sec
 * total energy  :   -59.3405648 Eh     change       -0.1206419E-01 Eh
   gradient norm :     0.2717229 Eh/α   predicted    -0.8985289E-02 ( -25.52%)
   displ. norm   :     0.2524274 α      lambda       -0.1383053E-01
   maximum displ.:     0.1290276 α      in ANC's #19, #16, #64, ...

........................................................................
.............................. CYCLE   18 ..............................
........................................................................

 iter      E             dE          RMSdq      gap      omega  full diag
   1    -42.2343434 -0.422343E+02  0.417E-01    0.30       0.0  T
   2    -42.1831436  0.511998E-01  0.989E-01    0.10       1.0  T
   3    -42.2351265 -0.519828E-01  0.260E-01    0.31       1.0  T
   4    -42.2363945 -0.126800E-02  0.198E-01    0.27       1.0  T
   5    -42.2373418 -0.947367E-03  0.725E-02    0.30       1.0  T
   6    -42.2375000 -0.158147E-03  0.194E-02    0.29       1.0  T
   7    -42.2375089 -0.896868E-05  0.123E-02    0.29       1.6  T
   8    -42.2375102 -0.121579E-05  0.795E-03    0.29       2.5  T
   9    -42.2375126 -0.248264E-05  0.254E-03    0.29       7.9  T
  10    -42.2375128 -0.174682E-06  0.121E-03    0.29      16.6  T
  11    -42.2375128 -0.334188E-07  0.582E-04    0.29      34.3  T
  12    -42.2375129 -0.831708E-08  0.214E-04    0.29      93.2  T
     SCC iter.                  ...        0 min,  0.016 sec
     gradient                   ...        0 min,  0.013 sec
 * total energy  :   -59.3506101 Eh     change       -0.1004525E-01 Eh
   gradient norm :     0.1508497 Eh/α   predicted    -0.7356132E-02 ( -26.77%)
   displ. norm   :     0.2151144 α      lambda       -0.1109708E-01
   maximum displ.:     0.1189633 α      in ANC's #16, #19, #64, ...

........................................................................
.............................. CYCLE   19 ..............................
........................................................................

 iter      E             dE          RMSdq      gap      omega  full diag
   1    -42.2437319 -0.422437E+02  0.405E-01    0.16       0.0  T
   2    -42.1543952  0.893368E-01  0.130E+00    0.14       1.0  T
   3    -42.2482833 -0.938881E-01  0.177E-01    0.18       1.0  T
   4    -42.2469238  0.135949E-02  0.247E-01    0.13       1.0  T
   5    -42.2485549 -0.163107E-02  0.442E-02    0.16       1.0  T
   6    -42.2485830 -0.281696E-04  0.335E-02    0.16       1.0  T
   7    -42.2486103 -0.272581E-04  0.137E-02    0.16       1.5  T
   8    -42.2486116 -0.130790E-05  0.861E-03    0.16       2.3  T
   9    -42.2486135 -0.189564E-05  0.379E-03    0.16       5.3  T
  10    -42.2486141 -0.566971E-06  0.132E-03    0.16      15.2  T
  11    -42.2486141 -0.225289E-07  0.818E-04    0.16      24.4  T
  12    -42.2486141 -0.187278E-07  0.284E-04    0.16      70.4  T
     SCC iter.                  ...        0 min,  0.016 sec
     gradient                   ...        0 min,  0.013 sec
 * total energy  :   -59.3585745 Eh     change       -0.7964391E-02 Eh
   gradient norm :     0.1642958 Eh/α   predicted    -0.5805448E-02 ( -27.11%)
   displ. norm   :     0.1761672 α      lambda       -0.8049260E-02
   maximum displ.:     0.0973937 α      in ANC's #16, #39, #19, ...

........................................................................
.............................. CYCLE   20 ..............................
........................................................................

 iter      E             dE          RMSdq      gap      omega  full diag
   1    -42.2599557 -0.422600E+02  0.324E-01    0.02       0.0  T
   2    -42.1964207  0.635350E-01  0.109E+00    0.12       1.0  T
   3    -42.2629270 -0.665064E-01  0.158E-01    0.04       1.0  T
   4    -42.2621181  0.808949E-03  0.209E-01    0.01       1.0  T
   5    -42.2632652 -0.114710E-02  0.530E-02    0.03       1.0  T
   6    -42.2633304 -0.652606E-04  0.303E-02    0.03       1.0  T
   7    -42.2633549 -0.244690E-04  0.121E-02    0.03       1.7  T
   8    -42.2633576 -0.271376E-05  0.477E-03    0.03       4.2  T
   9    -42.2633576  0.251614E-07  0.190E-03    0.03      10.5  T
  10    -42.2633577 -0.878005E-07  0.755E-04    0.03      26.5  T
  11    -42.2633577  0.298073E-08  0.506E-04    0.03      39.5  T
     SCC iter.                  ...        0 min,  0.015 sec
     gradient                   ...        0 min,  0.013 sec
 * total energy  :   -59.3643482 Eh     change       -0.5773709E-02 Eh
   gradient norm :     0.1332057 Eh/α   predicted    -0.4149717E-02 ( -28.13%)
   displ. norm   :     0.1734178 α      lambda       -0.6575528E-02
   maximum displ.:     0.0990454 α      in ANC's #16, #39, #13, ...
 * RMSD in coord.:     1.1305316 α      energy gain  -0.1669718E+02 Eh

generating ANC from model Hessian ...
Using Lindh-Hessian (1995)
 Shifting diagonal of input Hessian by    8.4542113276999606E-003
 Lowest  eigenvalues of input Hessian
    0.000000    0.000000    0.000000    0.000000    0.000000    0.000000
    0.010000    0.011068    0.012290    0.012868    0.014119    0.015939
    0.018353    0.020595    0.023120    0.025719    0.028673    0.030322
 Highest eigenvalues
    2.143442    2.292486    2.384978    2.432340   18.643108   23.405377


........................................................................
.............................. CYCLE   21 ..............................
........................................................................

 iter      E             dE          RMSdq      gap      omega  full diag
   1    -42.2760612 -0.422761E+02  0.250E-01    0.09       0.0  T
   2    -42.2501243  0.259369E-01  0.703E-01    0.02       1.0  T
   3    -42.2773492 -0.272249E-01  0.117E-01    0.08       1.0  T
   4    -42.2768429  0.506260E-03  0.149E-01    0.09       1.0  T
   5    -42.2774765 -0.633536E-03  0.351E-02    0.07       1.0  T
   6    -42.2775198 -0.433417E-04  0.134E-02    0.08       1.5  T
   7    -42.2775219 -0.213683E-05  0.911E-03    0.08       2.2  T
   8    -42.2775238 -0.188568E-05  0.367E-03    0.08       5.4  T
   9    -42.2775240 -0.138877E-06  0.215E-03    0.08       9.3  T
  10    -42.2775242 -0.193546E-06  0.561E-04    0.08      35.6  T
  11    -42.2775242 -0.381119E-08  0.268E-04    0.08      74.7  T
     SCC iter.                  ...        0 min,  0.015 sec
     gradient                   ...        0 min,  0.013 sec
 * total energy  :   -59.3692490 Eh     change       -0.4900868E-02 Eh
   gradient norm :     0.1824905 Eh/α   predicted     0.0000000E+00 (-100.00%)
   displ. norm   :     0.3580352 α      lambda       -0.2542239E-01
   maximum displ.:     0.1446197 α      in ANC's #13, #10, #9, ...

........................................................................
.............................. CYCLE   22 ..............................
........................................................................

 iter      E             dE          RMSdq      gap      omega  full diag
   1    -42.2865264 -0.422865E+02  0.375E-01    0.09       0.0  T
   2    -42.2523423  0.341841E-01  0.826E-01    0.10       1.0  T
   3    -42.2874684 -0.351262E-01  0.233E-01    0.08       1.0  T
   4    -42.2869165  0.551937E-03  0.250E-01    0.12       1.0  T
   5    -42.2885665 -0.165004E-02  0.134E-01    0.08       1.0  T
   6    -42.2891964 -0.629842E-03  0.286E-02    0.09       1.0  T
   7    -42.2892132 -0.167959E-04  0.172E-02    0.09       1.2  T
   8    -42.2892172 -0.402738E-05  0.750E-03    0.09       2.7  T
   9    -42.2892195 -0.233703E-05  0.186E-03    0.09      10.7  T
  10    -42.2892196 -0.194351E-07  0.131E-03    0.09      15.3  T
  11    -42.2892196 -0.615138E-07  0.509E-04    0.09      39.3  T
  12    -42.2892196 -0.660940E-08  0.114E-04    0.09     176.1  T
     SCC iter.                  ...        0 min,  0.016 sec
     gradient                   ...        0 min,  0.013 sec
 * total energy  :   -59.2544187 Eh     change        0.1148303E+00 Eh
   gradient norm :     3.7819211 Eh/α   predicted    -0.1434064E-01 (-112.49%)
   displ. norm   :     0.1025227 α      lambda       -0.2746758E+00
   maximum displ.:     0.0545163 α      in ANC's #66, #49, #17, ...

........................................................................
.............................. CYCLE   23 ..............................
........................................................................

 iter      E             dE          RMSdq      gap      omega  full diag
   1    -42.2911516 -0.422912E+02  0.220E-01    0.08       0.0  T
   2    -42.2879737  0.317791E-02  0.338E-01    0.11       1.0  T
   3    -42.2910317 -0.305808E-02  0.145E-01    0.08       1.0  T
   4    -42.2896933  0.133841E-02  0.203E-01    0.10       1.0  T
   5    -42.2916925 -0.199912E-02  0.714E-02    0.09       1.0  T
   6    -42.2918852 -0.192707E-03  0.231E-02    0.09       1.0  T
   7    -42.2919003 -0.151109E-04  0.708E-03    0.09       2.8  T
   8    -42.2919008 -0.484841E-06  0.420E-03    0.09       4.8  T
   9    -42.2919014 -0.681308E-06  0.159E-03    0.09      12.6  T
  10    -42.2919015 -0.633949E-07  0.363E-04    0.09      55.1  T
  11    -42.2919015 -0.150382E-08  0.216E-04    0.09      92.7  T
     SCC iter.                  ...        0 min,  0.015 sec
     gradient                   ...        0 min,  0.013 sec
 * total energy  :   -59.3839456 Eh     change       -0.1295269E+00 Eh
   gradient norm :     0.0982730 Eh/α   predicted    -0.1387816E+00 (   7.15%)
   displ. norm   :     0.4780546 α      lambda       -0.1161282E-01
   maximum displ.:     0.2280987 α      in ANC's #10, #13, #9, ...

........................................................................
.............................. CYCLE   24 ..............................
........................................................................

 iter      E             dE          RMSdq      gap      omega  full diag
   1    -42.2900647 -0.422901E+02  0.492E-01    0.12       0.0  T
   2    -42.2649369  0.251278E-01  0.888E-01    0.24       1.0  T
   3    -42.2911025 -0.261657E-01  0.285E-01    0.15       1.0  T
   4    -42.2786445  0.124580E-01  0.548E-01    0.16       1.0  T
   5    -42.2930841 -0.144396E-01  0.193E-01    0.17       1.0  T
   6    -42.2942474 -0.116325E-02  0.828E-02    0.16       1.0  T
   7    -42.2944667 -0.219303E-03  0.177E-02    0.16       1.1  T
   8    -42.2944702 -0.354193E-05  0.966E-03    0.16       2.1  T
   9    -42.2944716 -0.139376E-05  0.516E-03    0.16       3.9  T
  10    -42.2944728 -0.115933E-05  0.148E-03    0.16      13.5  T
  11    -42.2944728  0.145180E-08  0.112E-03    0.16      17.9  T
  12    -42.2944728 -0.380734E-07  0.220E-04    0.16      90.8  T
  13    -42.2944728 -0.148543E-08  0.950E-05    0.16     210.5  T
     SCC iter.                  ...        0 min,  0.017 sec
     gradient                   ...        0 min,  0.013 sec
 * total energy  :   -59.3946064 Eh     change       -0.1066083E-01 Eh
   gradient norm :     0.1249638 Eh/α   predicted    -0.7133487E-02 ( -33.09%)
   displ. norm   :     0.7918256 α      lambda       -0.2240046E-01
   maximum displ.:     0.3770588 α      in ANC's #10, #13, #9, ...

........................................................................
.............................. CYCLE   25 ..............................
........................................................................

 iter      E             dE          RMSdq      gap      omega  full diag
   1    -42.2707481 -0.422707E+02  0.971E-01    0.13       0.0  T
   2    -41.9979962  0.272752E+00  0.277E+00    0.17       1.0  T
   3    -42.2928700 -0.294874E+00  0.468E-01    0.18       1.0  T
   4    -42.2873537  0.551628E-02  0.529E-01    0.19       1.0  T
   5    -42.2884885 -0.113482E-02  0.430E-01    0.19       1.0  T
   6    -42.2896113 -0.112279E-02  0.319E-01    0.16       1.0  T
   7    -42.2948870 -0.527567E-02  0.121E-01    0.17       1.0  T
   8    -42.2956634 -0.776474E-03  0.252E-02    0.17       1.0  T
   9    -42.2956500  0.134584E-04  0.232E-02    0.17       1.0  T
  10    -42.2956670 -0.169929E-04  0.113E-02    0.17       1.8  T
  11    -42.2956714 -0.445423E-05  0.442E-03    0.17       4.5  T
  12    -42.2956719 -0.498771E-06  0.168E-03    0.17      11.9  T
  13    -42.2956720 -0.728091E-07  0.635E-04    0.17      31.5  T
  14    -42.2956720 -0.624049E-08  0.359E-04    0.17      55.7  T
     SCC iter.                  ...        0 min,  0.018 sec
     gradient                   ...        0 min,  0.013 sec
 * total energy  :   -59.4117879 Eh     change       -0.1718147E-01 Eh
   gradient norm :     0.4106536 Eh/α   predicted    -0.1822297E-01 (   6.06%)
   displ. norm   :     0.4871027 α      lambda       -0.1541569E-01
   maximum displ.:     0.2134493 α      in ANC's #10, #9, #4, ...

........................................................................
.............................. CYCLE   26 ..............................
........................................................................

 iter      E             dE          RMSdq      gap      omega  full diag
   1    -42.3037184 -0.423037E+02  0.468E-01    0.17       0.0  T
   2    -42.2321619  0.715565E-01  0.141E+00    0.28       1.0  T
   3    -42.3082447 -0.760828E-01  0.206E-01    0.20       1.0  T
   4    -42.3043231  0.392163E-02  0.332E-01    0.21       1.0  T
   5    -42.3058351 -0.151199E-02  0.222E-01    0.16       1.0  T
   6    -42.3074573 -0.162221E-02  0.170E-01    0.23       1.0  T
   7    -42.3088047 -0.134739E-02  0.495E-02    0.21       1.0  T
   8    -42.3089040 -0.993516E-04  0.992E-03    0.20       2.0  T
   9    -42.3089038  0.200372E-06  0.784E-03    0.20       2.6  T
  10    -42.3089058 -0.193054E-05  0.242E-03    0.20       8.3  T
  11    -42.3089059 -0.130265E-06  0.690E-04    0.20      29.0  T
  12    -42.3089059  0.331907E-08  0.529E-04    0.20      37.8  T
     SCC iter.                  ...        0 min,  0.016 sec
     gradient                   ...        0 min,  0.013 sec
 * total energy  :   -59.4224558 Eh     change       -0.1066795E-01 Eh
   gradient norm :     0.6314892 Eh/α   predicted    -0.9536763E-02 ( -10.60%)
   displ. norm   :     0.3584355 α      lambda       -0.2288035E-01
   maximum displ.:     0.1008778 α      in ANC's #40, #4, #10, ...

........................................................................
.............................. CYCLE   27 ..............................
........................................................................

 iter      E             dE          RMSdq      gap      omega  full diag
   1    -42.3343266 -0.423343E+02  0.367E-01    0.25       0.0  T
   2    -42.3049697  0.293569E-01  0.801E-01    0.14       1.0  T
   3    -42.3348405 -0.298707E-01  0.215E-01    0.28       1.0  T
   4    -42.3319744  0.286607E-02  0.341E-01    0.16       1.0  T
   5    -42.3350048 -0.303040E-02  0.165E-01    0.25       1.0  T
   6    -42.3362140 -0.120914E-02  0.718E-02    0.23       1.0  T
   7    -42.3364228 -0.208812E-03  0.136E-02    0.23       1.5  T
   8    -42.3364255 -0.272105E-05  0.746E-03    0.23       2.7  T
   9    -42.3364275 -0.196852E-05  0.239E-03    0.23       8.4  T
  10    -42.3364274  0.828138E-07  0.194E-03    0.23      10.3  T
  11    -42.3364276 -0.183219E-06  0.472E-04    0.23      42.3  T
  12    -42.3364276 -0.378089E-08  0.252E-04    0.23      79.2  T
     SCC iter.                  ...        0 min,  0.016 sec
     gradient                   ...        0 min,  0.013 sec
 * total energy  :   -59.4407653 Eh     change       -0.1830949E-01 Eh
   gradient norm :     0.4217623 Eh/α   predicted    -0.1291006E-01 ( -29.49%)
   displ. norm   :     0.4691678 α      lambda       -0.3010504E-01
   maximum displ.:     0.1588496 α      in ANC's #40, #33, #35, ...

........................................................................
.............................. CYCLE   28 ..............................
........................................................................

 iter      E             dE          RMSdq      gap      omega  full diag
   1    -42.3611718 -0.423612E+02  0.575E-01    0.32       0.0  T
   2    -42.3020367  0.591351E-01  0.106E+00    0.19       1.0  T
   3    -42.3542600 -0.522233E-01  0.474E-01    0.43       1.0  T
   4    -42.3609596 -0.669957E-02  0.356E-01    0.22       1.0  T
   5    -42.3646254 -0.366584E-02  0.815E-02    0.30       1.0  T
   6    -42.3641427  0.482738E-03  0.136E-01    0.27       1.0  T
   7    -42.3648359 -0.693247E-03  0.351E-02    0.28       1.0  T
   8    -42.3648593 -0.233245E-04  0.149E-02    0.28       1.3  T
   9    -42.3648693 -0.100336E-04  0.502E-03    0.28       4.0  T
  10    -42.3648698 -0.506440E-06  0.256E-03    0.28       7.8  T
  11    -42.3648700 -0.209040E-06  0.934E-04    0.28      21.4  T
  12    -42.3648700 -0.407786E-08  0.542E-04    0.28      36.9  T
     SCC iter.                  ...        0 min,  0.016 sec
     gradient                   ...        0 min,  0.013 sec
 * total energy  :   -59.4642513 Eh     change       -0.2348603E-01 Eh
   gradient norm :     0.3377194 Eh/α   predicted    -0.1836610E-01 ( -21.80%)
   displ. norm   :     0.5857566 α      lambda       -0.2758630E-01
   maximum displ.:     0.1886828 α      in ANC's #33, #10, #14, ...

........................................................................
.............................. CYCLE   29 ..............................
........................................................................

 iter      E             dE          RMSdq      gap      omega  full diag
   1    -42.3785115 -0.423785E+02  0.605E-01    0.33       0.0  T
   2    -42.3556118  0.228998E-01  0.805E-01    0.27       1.0  T
   3    -42.3691393 -0.135276E-01  0.553E-01    0.42       1.0  T
   4    -42.3640828  0.505649E-02  0.562E-01    0.18       1.0  T
   5    -42.3793315 -0.152487E-01  0.198E-01    0.38       1.0  T
   6    -42.3809878 -0.165632E-02  0.642E-02    0.34       1.0  T
   7    -42.3810536 -0.657636E-04  0.405E-02    0.33       1.0  T
   8    -42.3810979 -0.442903E-04  0.146E-02    0.33       1.4  T
   9    -42.3811003 -0.238458E-05  0.105E-02    0.33       1.9  T
  10    -42.3811050 -0.469983E-05  0.360E-03    0.33       5.6  T
  11    -42.3811052 -0.252412E-06  0.162E-03    0.33      12.4  T
  12    -42.3811053 -0.103614E-06  0.581E-04    0.33      34.4  T
  13    -42.3811053 -0.102203E-07  0.205E-04    0.33      97.7  T
     SCC iter.                  ...        0 min,  0.017 sec
     gradient                   ...        0 min,  0.013 sec
 * total energy  :   -59.4850680 Eh     change       -0.2081666E-01 Eh
   gradient norm :     0.1239561 Eh/α   predicted    -0.1852604E-01 ( -11.00%)
   displ. norm   :     0.7115309 α      lambda       -0.1993238E-01
   maximum displ.:     0.3030473 α      in ANC's #10, #33, #23, ...

........................................................................
.............................. CYCLE   30 ..............................
........................................................................

 iter      E             dE          RMSdq      gap      omega  full diag
   1    -42.3716235 -0.423716E+02  0.625E-01    0.33       0.0  T
   2    -42.3437414  0.278821E-01  0.856E-01    0.62       1.0  T
   3    -42.3685347 -0.247933E-01  0.365E-01    0.29       1.0  T
   4    -42.3719335 -0.339880E-02  0.241E-01    0.46       1.0  T
   5    -42.3729189 -0.985443E-03  0.189E-01    0.38       1.0  T
   6    -42.3735872 -0.668278E-03  0.118E-01    0.40       1.0  T
   7    -42.3740770 -0.489789E-03  0.487E-02    0.40       1.0  T
   8    -42.3741566 -0.796644E-04  0.139E-02    0.39       1.4  T
   9    -42.3741600 -0.335633E-05  0.641E-03    0.39       3.1  T
  10    -42.3741603 -0.334939E-06  0.480E-03    0.39       4.2  T
  11    -42.3741614 -0.106207E-05  0.155E-03    0.39      12.9  T
  12    -42.3741615 -0.889538E-07  0.542E-04    0.39      36.9  T
  13    -42.3741615 -0.565159E-09  0.286E-04    0.39      70.0  T
     SCC iter.                  ...        0 min,  0.017 sec
     gradient                   ...        0 min,  0.013 sec
 * total energy  :   -59.4882105 Eh     change       -0.3142446E-02 Eh
   gradient norm :     0.7033652 Eh/α   predicted    -0.1501206E-01 ( 377.72%)
   displ. norm   :     0.2622393 α      lambda       -0.3055474E-01
   maximum displ.:     0.1150522 α      in ANC's #11, #10, #13, ...

........................................................................
.............................. CYCLE   31 ..............................
........................................................................

 iter      E             dE          RMSdq      gap      omega  full diag
   1    -42.3737513 -0.423738E+02  0.231E-01    0.36       0.0  T
   2    -42.3662212  0.753005E-02  0.418E-01    0.50       1.0  T
   3    -42.3734755 -0.725431E-02  0.157E-01    0.34       1.0  T
   4    -42.3710079  0.246766E-02  0.267E-01    0.44       1.0  T
   5    -42.3743849 -0.337699E-02  0.290E-02    0.39       1.0  T
   6    -42.3743813  0.351630E-05  0.300E-02    0.38       1.0  T
   7    -42.3744067 -0.253448E-04  0.113E-02    0.39       1.8  T
   8    -42.3744108 -0.406865E-05  0.380E-03    0.39       5.3  T
   9    -42.3744110 -0.241377E-06  0.193E-03    0.39      10.4  T
  10    -42.3744110 -0.460315E-07  0.117E-03    0.39      17.1  T
  11    -42.3744111 -0.403220E-07  0.439E-04    0.39      45.6  T
  12    -42.3744111 -0.699900E-08  0.113E-04    0.39     177.4  T
     SCC iter.                  ...        0 min,  0.016 sec
     gradient                   ...        0 min,  0.013 sec
 * total energy  :   -59.4905431 Eh     change       -0.2332610E-02 Eh
   gradient norm :     0.7970675 Eh/α   predicted    -0.1632796E-01 ( 599.99%)
   displ. norm   :     0.3074925 α      lambda       -0.2853717E-01
   maximum displ.:     0.1320020 α      in ANC's #23, #25, #13, ...

........................................................................
.............................. CYCLE   32 ..............................
........................................................................

 iter      E             dE          RMSdq      gap      omega  full diag
   1    -42.3833272 -0.423833E+02  0.720E-01    0.22       0.0  T
   2    -42.1948577  0.188470E+00  0.210E+00    0.18       1.0  T
   3    -42.3884711 -0.193613E+00  0.706E-01    0.46       1.0  T
   4    -42.3879792  0.491988E-03  0.582E-01    0.24       1.0  T
   5    -42.4035941 -0.156149E-01  0.137E-01    0.35       1.0  T
   6    -42.4037086 -0.114507E-03  0.836E-02    0.36       1.0  T
   7    -42.4039361 -0.227536E-03  0.444E-02    0.36       1.0  T
   8    -42.4039959 -0.597788E-04  0.250E-02    0.36       1.0  T
   9    -42.4040128 -0.169225E-04  0.874E-03    0.36       2.3  T
  10    -42.4040143 -0.151994E-05  0.425E-03    0.36       4.7  T
  11    -42.4040147 -0.395849E-06  0.173E-03    0.36      11.6  T
  12    -42.4040148 -0.772742E-07  0.433E-04    0.36      46.2  T
  13    -42.4040148 -0.476071E-09  0.292E-04    0.36      68.4  T
     SCC iter.                  ...        0 min,  0.017 sec
     gradient                   ...        0 min,  0.013 sec
 * total energy  :   -59.4964816 Eh     change       -0.5938539E-02 Eh
   gradient norm :     0.1443790 Eh/α   predicted    -0.1561779E-01 ( 162.99%)
   displ. norm   :     0.3028326 α      lambda       -0.1722859E-01
   maximum displ.:     0.1326167 α      in ANC's #10, #9, #25, ...

........................................................................
.............................. CYCLE   33 ..............................
........................................................................

 iter      E             dE          RMSdq      gap      omega  full diag
   1    -42.3876557 -0.423877E+02  0.556E-01    0.35       0.0  T
   2    -42.2326559  0.155000E+00  0.202E+00    0.11       1.0  T
   3    -42.3980948 -0.165439E+00  0.350E-01    0.41       1.0  T
   4    -42.3978949  0.199893E-03  0.288E-01    0.33       1.0  T
   5    -42.3951766  0.271830E-02  0.311E-01    0.48       1.0  T
   6    -42.4004126 -0.523594E-02  0.892E-02    0.37       1.0  T
   7    -42.4006546 -0.242026E-03  0.465E-02    0.38       1.0  T
   8    -42.4007001 -0.454914E-04  0.218E-02    0.38       1.0  T
   9    -42.4007035 -0.346095E-05  0.158E-02    0.39       1.3  T
  10    -42.4007100 -0.647068E-05  0.563E-03    0.38       3.6  T
  11    -42.4007110 -0.102188E-05  0.254E-03    0.38       7.9  T
  12    -42.4007111 -0.117045E-06  0.102E-03    0.38      19.6  T
  13    -42.4007112 -0.409645E-07  0.381E-04    0.38      52.5  T
  14    -42.4007112 -0.612904E-08  0.109E-04    0.38     183.1  T
     SCC iter.                  ...        0 min,  0.018 sec
     gradient                   ...        0 min,  0.013 sec
 * total energy  :   -59.5012617 Eh     change       -0.4780132E-02 Eh
   gradient norm :     0.3159513 Eh/α   predicted    -0.9404263E-02 (  96.74%)
   displ. norm   :     0.2309184 α      lambda       -0.5822125E-02
   maximum displ.:     0.0816051 α      in ANC's #13, #15, #6, ...

........................................................................
.............................. CYCLE   34 ..............................
........................................................................

 iter      E             dE          RMSdq      gap      omega  full diag
   1    -42.3933571 -0.423934E+02  0.251E-01    0.38       0.0  T
   2    -42.3867161  0.664103E-02  0.452E-01    0.49       1.0  T
   3    -42.3939976 -0.728154E-02  0.122E-01    0.39       1.0  T
   4    -42.3899213  0.407628E-02  0.289E-01    0.49       1.0  T
   5    -42.3941177 -0.419636E-02  0.410E-02    0.40       1.0  T
   6    -42.3941177 -0.254836E-07  0.397E-02    0.41       1.0  T
   7    -42.3941687 -0.510112E-04  0.194E-02    0.41       1.0  T
   8    -42.3941751 -0.630878E-05  0.114E-02    0.41       1.8  T
   9    -42.3941807 -0.564757E-05  0.340E-03    0.41       5.9  T
  10    -42.3941808 -0.130836E-06  0.183E-03    0.41      10.9  T
  11    -42.3941809 -0.112011E-06  0.578E-04    0.41      34.6  T
  12    -42.3941809 -0.724746E-08  0.234E-04    0.41      85.6  T
     SCC iter.                  ...        0 min,  0.016 sec
     gradient                   ...        0 min,  0.013 sec
 * total energy  :   -59.5039711 Eh     change       -0.2709341E-02 Eh
   gradient norm :     0.0409628 Eh/α   predicted    -0.3066306E-02 (  13.18%)
   displ. norm   :     0.1885859 α      lambda       -0.2647432E-02
   maximum displ.:     0.0670383 α      in ANC's #6, #17, #3, ...

........................................................................
.............................. CYCLE   35 ..............................
........................................................................

 iter      E             dE          RMSdq      gap      omega  full diag
   1    -42.4037657 -0.424038E+02  0.183E-01    0.42       0.0  T
   2    -42.3948090  0.895666E-02  0.426E-01    0.30       1.0  T
   3    -42.4044041 -0.959505E-02  0.879E-02    0.40       1.0  T
   4    -42.4038960  0.508044E-03  0.123E-01    0.36       1.0  T
   5    -42.4043447 -0.448662E-03  0.559E-02    0.40       1.0  T
   6    -42.4043860 -0.413536E-04  0.396E-02    0.39       1.0  T
   7    -42.4044454 -0.594200E-04  0.151E-02    0.39       1.3  T
   8    -42.4044514 -0.594487E-05  0.936E-03    0.39       2.1  T
   9    -42.4044543 -0.288520E-05  0.401E-03    0.39       5.0  T
  10    -42.4044549 -0.610973E-06  0.117E-03    0.39      17.2  T
  11    -42.4044549 -0.434981E-07  0.306E-04    0.39      65.4  T
  12    -42.4044549 -0.182456E-08  0.135E-04    0.39     147.8  T
     SCC iter.                  ...        0 min,  0.016 sec
     gradient                   ...        0 min,  0.013 sec
 * total energy  :   -59.5053398 Eh     change       -0.1368754E-02 Eh
   gradient norm :     0.0987177 Eh/α   predicted    -0.1370802E-02 (   0.15%)
   displ. norm   :     0.2242292 α      lambda       -0.1852783E-02
   maximum displ.:     0.0913463 α      in ANC's #6, #11, #1, ...

........................................................................
.............................. CYCLE   36 ..............................
........................................................................

 iter      E             dE          RMSdq      gap      omega  full diag
   1    -42.4070237 -0.424070E+02  0.130E-01    0.41       0.0  T
   2    -42.4070027  0.210721E-04  0.766E-02    0.40       1.0  T
   3    -42.4065326  0.470101E-03  0.112E-01    0.44       1.0  T
   4    -42.4066356 -0.103010E-03  0.895E-02    0.38       1.0  T
   5    -42.4070414 -0.405844E-03  0.222E-02    0.41       1.0  T
   6    -42.4070569 -0.155179E-04  0.127E-02    0.41       1.6  T
   7    -42.4070626 -0.562041E-05  0.598E-03    0.40       3.3  T
   8    -42.4070624  0.154744E-06  0.649E-03    0.41       3.1  T
   9    -42.4070637 -0.134220E-05  0.202E-03    0.40       9.9  T
  10    -42.4070639 -0.151202E-06  0.781E-04    0.40      25.6  T
  11    -42.4070639 -0.140888E-07  0.224E-04    0.40      89.2  T
     SCC iter.                  ...        0 min,  0.015 sec
     gradient                   ...        0 min,  0.013 sec
 * total energy  :   -59.5066240 Eh     change       -0.1284135E-02 Eh
   gradient norm :     0.0417608 Eh/α   predicted    -0.9729814E-03 ( -24.23%)
   displ. norm   :     0.2665361 α      lambda       -0.1442748E-02
   maximum displ.:     0.1092183 α      in ANC's #11, #6, #1, ...

........................................................................
.............................. CYCLE   37 ..............................
........................................................................

 iter      E             dE          RMSdq      gap      omega  full diag
   1    -42.4084640 -0.424085E+02  0.155E-01    0.40       0.0  T
   2    -42.4063533  0.211071E-02  0.233E-01    0.45       1.0  T
   3    -42.4080182 -0.166484E-02  0.120E-01    0.38       1.0  T
   4    -42.4077191  0.299084E-03  0.145E-01    0.46       1.0  T
   5    -42.4086487 -0.929560E-03  0.332E-02    0.41       1.0  T
   6    -42.4086789 -0.302214E-04  0.176E-02    0.41       1.1  T
   7    -42.4086808 -0.190362E-05  0.125E-02    0.41       1.6  T
   8    -42.4086874 -0.667130E-05  0.247E-03    0.41       8.1  T
   9    -42.4086876 -0.159680E-06  0.107E-03    0.41      18.7  T
  10    -42.4086876 -0.259611E-07  0.430E-04    0.41      46.6  T
  11    -42.4086876 -0.151335E-08  0.175E-04    0.41     114.1  T
     SCC iter.                  ...        0 min,  0.015 sec
     gradient                   ...        0 min,  0.013 sec
 * total energy  :   -59.5076298 Eh     change       -0.1005788E-02 Eh
   gradient norm :     0.0303149 Eh/α   predicted    -0.7726305E-03 ( -23.18%)
   displ. norm   :     0.2962555 α      lambda       -0.1047492E-02
   maximum displ.:     0.1585707 α      in ANC's #11, #1, #3, ...

........................................................................
.............................. CYCLE   38 ..............................
........................................................................

 iter      E             dE          RMSdq      gap      omega  full diag
   1    -42.4063464 -0.424063E+02  0.164E-01    0.40       0.0  T
   2    -42.4052996  0.104683E-02  0.166E-01    0.45       1.0  T
   3    -42.4039513  0.134835E-02  0.212E-01    0.34       1.0  T
   4    -42.4062656 -0.231438E-02  0.747E-02    0.42       1.0  T
   5    -42.4064590 -0.193358E-03  0.162E-02    0.40       1.2  T
   6    -42.4064531  0.591527E-05  0.166E-02    0.41       1.2  T
   7    -42.4064645 -0.113876E-04  0.448E-03    0.41       4.5  T
   8    -42.4064644  0.100529E-06  0.445E-03    0.41       4.5  T
   9    -42.4064650 -0.663051E-06  0.109E-03    0.41      18.3  T
  10    -42.4064650 -0.162772E-07  0.473E-04    0.41      42.3  T
  11    -42.4064651 -0.581310E-08  0.178E-04    0.41     112.6  T
     SCC iter.                  ...        0 min,  0.015 sec
     gradient                   ...        0 min,  0.013 sec
 * total energy  :   -59.5082616 Eh     change       -0.6318817E-03 Eh
   gradient norm :     0.0293894 Eh/α   predicted    -0.5697234E-03 (  -9.84%)
   displ. norm   :     0.3145001 α      lambda       -0.1409227E-02
   maximum displ.:     0.1338996 α      in ANC's #11, #1, #7, ...

........................................................................
.............................. CYCLE   39 ..............................
........................................................................

 iter      E             dE          RMSdq      gap      omega  full diag
   1    -42.4090410 -0.424090E+02  0.217E-01    0.34       0.0  T
   2    -42.4043531  0.468796E-02  0.293E-01    0.47       1.0  T
   3    -42.4055581 -0.120499E-02  0.281E-01    0.27       1.0  T
   4    -42.4086880 -0.312999E-02  0.146E-01    0.36       1.0  T
   5    -42.4093514 -0.663397E-03  0.455E-02    0.35       1.0  T
   6    -42.4093968 -0.453214E-04  0.300E-02    0.35       1.0  T
   7    -42.4094268 -0.300784E-04  0.121E-02    0.36       1.7  T
   8    -42.4094315 -0.461827E-05  0.298E-03    0.36       6.7  T
   9    -42.4094314  0.253323E-07  0.226E-03    0.36       8.8  T
  10    -42.4094316 -0.156669E-06  0.122E-03    0.36      16.5  T
  11    -42.4094316 -0.436702E-07  0.402E-04    0.36      49.7  T
  12    -42.4094316 -0.476150E-08  0.124E-04    0.36     161.9  T
     SCC iter.                  ...        0 min,  0.016 sec
     gradient                   ...        0 min,  0.013 sec
 * total energy  :   -59.5090512 Eh     change       -0.7895796E-03 Eh
   gradient norm :     0.0920133 Eh/α   predicted    -0.7743146E-03 (  -1.93%)
   displ. norm   :     0.2782093 α      lambda       -0.8828591E-03
   maximum displ.:     0.1020836 α      in ANC's #7, #11, #18, ...

........................................................................
.............................. CYCLE   40 ..............................
........................................................................

 iter      E             dE          RMSdq      gap      omega  full diag
   1    -42.4089353 -0.424089E+02  0.193E-01    0.28       0.0  T
   2    -42.4052911  0.364427E-02  0.269E-01    0.40       1.0  T
   3    -42.4067073 -0.141620E-02  0.233E-01    0.23       1.0  T
   4    -42.4082742 -0.156691E-02  0.170E-01    0.32       1.0  T
   5    -42.4091865 -0.912351E-03  0.430E-02    0.29       1.0  T
   6    -42.4092528 -0.662342E-04  0.235E-02    0.30       1.0  T
   7    -42.4092716 -0.188199E-04  0.865E-03    0.30       2.3  T
   8    -42.4092730 -0.142687E-05  0.387E-03    0.30       5.2  T
   9    -42.4092734 -0.410818E-06  0.232E-03    0.30       8.6  T
  10    -42.4092736 -0.146048E-06  0.906E-04    0.30      22.1  T
  11    -42.4092736 -0.292378E-07  0.209E-04    0.30      95.9  T
     SCC iter.                  ...        0 min,  0.015 sec
     gradient                   ...        0 min,  0.013 sec
 * total energy  :   -59.5097726 Eh     change       -0.7213338E-03 Eh
   gradient norm :     0.0535424 Eh/α   predicted    -0.4756070E-03 ( -34.07%)
   displ. norm   :     0.5108501 α      lambda       -0.1607476E-02
   maximum displ.:     0.2182902 α      in ANC's #7, #18, #1, ...

........................................................................
.............................. CYCLE   41 ..............................
........................................................................

 iter      E             dE          RMSdq      gap      omega  full diag
   1    -42.4058078 -0.424058E+02  0.389E-01    0.12       0.0  T
   2    -42.3870275  0.187804E-01  0.604E-01    0.38       1.0  T
   3    -42.3985486 -0.115212E-01  0.442E-01    0.08       1.0  T
   4    -42.4040036 -0.545493E-02  0.329E-01    0.19       1.0  T
   5    -42.4070917 -0.308813E-02  0.953E-02    0.14       1.0  T
   6    -42.4074895 -0.397780E-03  0.438E-02    0.16       1.0  T
   7    -42.4075487 -0.591757E-04  0.201E-02    0.16       1.0  T
   8    -42.4075555 -0.688409E-05  0.102E-02    0.16       2.0  T
   9    -42.4075587 -0.312241E-05  0.486E-03    0.16       4.1  T
  10    -42.4075595 -0.813750E-06  0.178E-03    0.17      11.3  T
  11    -42.4075596 -0.877556E-07  0.654E-04    0.17      30.6  T
  12    -42.4075596 -0.918108E-08  0.159E-04    0.17     126.1  T
     SCC iter.                  ...        0 min,  0.016 sec
     gradient                   ...        0 min,  0.013 sec
 * total energy  :   -59.5111588 Eh     change       -0.1386228E-02 Eh
   gradient norm :     0.0496487 Eh/α   predicted    -0.1013542E-02 ( -26.88%)
   displ. norm   :     0.7773638 α      lambda       -0.2859208E-02
   maximum displ.:     0.3219851 α      in ANC's #7, #18, #10, ...

........................................................................
.............................. CYCLE   42 ..............................
........................................................................

 iter      E             dE          RMSdq      gap      omega  full diag
   1    -42.3961748 -0.423962E+02  0.693E-01    0.12       0.0  T
   2    -42.3397105  0.564643E-01  0.104E+00    0.33       1.0  T
   3    -42.3731576 -0.334471E-01  0.772E-01    0.17       1.0  T
   4    -42.3951207 -0.219631E-01  0.482E-01    0.04       1.0  T
   5    -42.4013131 -0.619240E-02  0.109E-01    0.09       1.0  T
   6    -42.4017737 -0.460658E-03  0.622E-02    0.08       1.0  T
   7    -42.4018043 -0.306039E-04  0.454E-02    0.07       1.0  T
   8    -42.4018607 -0.563615E-04  0.247E-02    0.07       1.0  T
   9    -42.4018793 -0.185768E-04  0.762E-03    0.07       2.6  T
  10    -42.4018811 -0.179698E-05  0.309E-03    0.07       6.5  T
  11    -42.4018814 -0.350404E-06  0.816E-04    0.07      24.5  T
  12    -42.4018814 -0.852243E-08  0.264E-04    0.07      75.6  T
     SCC iter.                  ...        0 min,  0.016 sec
     gradient                   ...        0 min,  0.013 sec
 * total energy  :   -59.5142494 Eh     change       -0.3090642E-02 Eh
   gradient norm :     0.1937380 Eh/α   predicted    -0.2293553E-02 ( -25.79%)
   displ. norm   :     0.8057450 α      lambda       -0.5033096E-02
   maximum displ.:     0.3316683 α      in ANC's #18, #7, #10, ...
 * RMSD in coord.:     0.9341146 α      energy gain  -0.1499012E+00 Eh

generating ANC from model Hessian ...
Using Lindh-Hessian (1995)
 Shifting diagonal of input Hessian by    8.3465237445788376E-003
 Lowest  eigenvalues of input Hessian
    0.000000    0.000000    0.000000    0.000000    0.000000    0.000000
    0.010000    0.010543    0.011981    0.013599    0.014426    0.015364
    0.018400    0.020885    0.021695    0.025594    0.031574    0.034172
 Highest eigenvalues
    2.047464    2.103950    2.340038    2.469168   18.412882   20.407882


........................................................................
.............................. CYCLE   43 ..............................
........................................................................

 iter      E             dE          RMSdq      gap      omega  full diag
   1    -42.3948584 -0.423949E+02  0.696E-01    0.22       0.0  T
   2    -42.3904286  0.442983E-02  0.536E-01    0.14       1.0  T
   3    -42.3801061  0.103225E-01  0.613E-01    0.25       1.0  T
   4    -42.3783420  0.176408E-02  0.585E-01    0.04       1.0  T
   5    -42.3972041 -0.188622E-01  0.707E-02    0.22       1.0  T
   6    -42.3973935 -0.189361E-03  0.357E-02    0.21       1.0  T
   7    -42.3974066 -0.131004E-04  0.207E-02    0.21       1.0  T
   8    -42.3974096 -0.296922E-05  0.101E-02    0.21       2.0  T
   9    -42.3974102 -0.610476E-06  0.670E-03    0.21       3.0  T
  10    -42.3974121 -0.191798E-05  0.194E-03    0.21      10.3  T
  11    -42.3974122 -0.706547E-07  0.764E-04    0.21      26.2  T
  12    -42.3974122 -0.449045E-08  0.438E-04    0.21      45.7  T
     SCC iter.                  ...        0 min,  0.016 sec
     gradient                   ...        0 min,  0.013 sec
 * total energy  :   -59.5134430 Eh     change        0.8064595E-03 Eh
   gradient norm :     0.4575527 Eh/α   predicted     0.0000000E+00 (-100.00%)
   displ. norm   :     0.3279550 α      lambda       -0.1249144E+00
   maximum displ.:     0.1789907 α      in ANC's #65, #48, #45, ...

........................................................................
.............................. CYCLE   44 ..............................
........................................................................

 iter      E             dE          RMSdq      gap      omega  full diag
   1    -42.3925960 -0.423926E+02  0.486E-01    0.10       0.0  T
   2    -42.3917181  0.877987E-03  0.320E-01    0.14       1.0  T
   3    -42.3736660  0.180521E-01  0.575E-01    0.12       1.0  T
   4    -42.3899061 -0.162401E-01  0.280E-01    0.17       1.0  T
   5    -42.3934411 -0.353503E-02  0.665E-02    0.12       1.0  T
   6    -42.3935251 -0.839779E-04  0.275E-02    0.12       1.0  T
   7    -42.3935245  0.591023E-06  0.231E-02    0.11       1.0  T
   8    -42.3935413 -0.168134E-04  0.795E-03    0.11       2.5  T
   9    -42.3935429 -0.155598E-05  0.343E-03    0.11       5.8  T
  10    -42.3935431 -0.187748E-06  0.207E-03    0.11       9.7  T
  11    -42.3935432 -0.800990E-07  0.879E-04    0.11      22.8  T
  12    -42.3935432 -0.320892E-07  0.255E-04    0.11      78.5  T
     SCC iter.                  ...        0 min,  0.016 sec
     gradient                   ...        0 min,  0.013 sec
 * total energy  :   -57.6512693 Eh     change        0.1862174E+01 Eh
   gradient norm :    21.7592568 Eh/α   predicted    -0.6918126E-01 (-103.72%)
   displ. norm   :     0.2244601 α      lambda       -0.4868632E+01
   maximum displ.:     0.1975519 α      in ANC's #65, #48, #42, ...

........................................................................
.............................. CYCLE   45 ..............................
........................................................................

[...]
C           -1.24289642558120       -2.61608854818599        0.28319914188383
H            3.34796097014312        0.96664069785289        1.62710179345934
H            4.05923464107217        1.09023554937640        0.01998018354385
H            2.63528003430277        2.08465742858700        0.42068612449164
H            0.41975676745336       -1.24614211806892       -1.23687613087622
H           -1.60211553790112        3.05876503300996       -0.41889335229841
H           -2.88536253062705        1.94646890528417       -0.98245488469841
H           -2.60850472670586        2.15016255639460        0.74867920091029
H           -0.63606813537930       -3.06329853081391        1.07291206590396
H           -1.20567368709572       -3.24424388609967       -0.60926116484084
H           -2.27419942344692       -2.54302623729440        0.62703056814589
H            1.64633862460676       -2.98267846263254       -0.30124832265701

 Bond Distances (Angstroems)
 ---------------------------
C1-N2=1.4317         C1-H15=1.0919        C1-H16=1.0922        C1-H17=1.0895        N2-C1=1.4317         N2-C3=1.3703         
N2-C6=1.3407         C3-N2=1.3703         C3-N4=1.3028         N4-C3=1.3028         N4-C5=1.5192         N4-H25=1.0091        
C5-N4=1.5192         C5-C6=1.5254         C5-N13=1.5040        C5-H18=0.4245        C6-N2=1.3407         C6-C5=1.5254         
C6-C7=1.4539         C7-C6=1.4539         C7-O8=1.2105         C7-N9=1.3865         O8-C7=1.2105         N9-C7=1.3865         
N9-C10=1.4500        N9-C11=1.4054        C10-N9=1.4500        C10-H19=1.0880       C10-H20=1.0914       C10-H21=1.0917       
C11-N9=1.4054        C11-O12=1.2015       C11-N13=1.3736       O12-C11=1.2015       N13-C5=1.5040        N13-C11=1.3736       
N13-C14=1.4436       C14-N13=1.4436       C14-H22=1.0917       C14-H23=1.0920       C14-H24=1.0896       H15-C1=1.0919        
H16-C1=1.0922        H17-C1=1.0895        H18-C5=0.4245        H19-C10=1.0880       H20-C10=1.0914       H21-C10=1.0917       
H22-C14=1.0917       H23-C14=1.0920       H24-C14=1.0896       H25-N4=1.0091        
 C  H  Rav=1.0242 sigma=0.1999  Rmin=0.4245  Rmax=1.0922    10
 C  C  Rav=1.4897 sigma=0.0357  Rmin=1.4539  Rmax=1.5254     2
 N  H  Rav=1.0091 sigma=0.0000  Rmin=1.0091  Rmax=1.0091     1
 N  C  Rav=1.4116 sigma=0.0630  Rmin=1.3028  Rmax=1.5192    11
 O  C  Rav=1.2060 sigma=0.0045  Rmin=1.2015  Rmax=1.2105     2

 selected bond angles (degree)
 --------------------
H15-C1-N2=109.54               H16-C1-N2=109.34               H16-C1-H15=107.54              H17-C1-N2=110.27               
H17-C1-H15=110.53              H17-C1-H16=109.57              C3-N2-C1=122.61                C6-N2-C1=126.35                
C6-N2-C3=111.01                N4-C3-N2=108.40                C5-N4-C3=113.79                H25-N4-C3=123.32               
H25-N4-C5=122.18               C6-C5-N4= 95.99                N13-C5-N4=111.12               N13-C5-C6=103.83               
H18-C5-N4=112.48               H18-C5-C6=119.79               H18-C5-N13=112.32              C5-C6-N2=110.27                
C7-C6-N2=127.41                C7-C6-C5=120.93                O8-C7-C6=124.71                N9-C7-C6=111.87                
N9-C7-O8=123.38                C10-N9-C7=117.96               C11-N9-C7=124.92               C11-N9-C10=115.38              
H19-C10-N9=108.52              H20-C10-N9=109.31              H20-C10-H19=110.37             H21-C10-N9=110.40              
H21-C10-H19=110.35             H21-C10-H20=107.89             

 selected dihedral angles (degree)
 ---------------------------------
C3-N2-C1-H15=303.67           C3-N2-C1-H16= 61.28           C3-N2-C1-H17=181.82           C6-N2-C1-H15=121.47           
C6-N2-C1-H16=239.08           C6-N2-C1-H17=359.62           N4-C3-N2-C1=176.83            N4-C3-N2-C6=358.73            
C5-N4-C3-N2=  5.88            H25-N4-C3-N2=176.35           C6-C5-N4-C3=352.70            C6-C5-N4-H25=182.11           
N13-C5-N4-C3=245.35           N13-C5-N4-H25= 74.76          H18-C5-N4-C3=118.44           H18-C5-N4-H25=307.85          
C5-C6-N2-C1=178.29            C5-C6-N2-C3=356.30            C7-C6-N2-C1=344.74            C7-C6-N2-C3=162.75            
N2-C6-C5-N4=  6.20            N2-C6-C5-N13=119.72           N2-C6-C5-H18=246.00           C7-C6-C5-N4=198.74            
C7-C6-C5-N13=312.25           C7-C6-C5-H18= 78.53           O8-C7-C6-N2= 33.95            O8-C7-C6-C5=199.10            
N9-C7-C6-N2=216.14            N9-C7-C6-C5= 21.29            C10-N9-C7-C6=180.33           C10-N9-C7-O8=  2.49           
C11-N9-C7-C6= 16.08           C11-N9-C7-O8=198.24           H19-C10-N9-C7=  6.97          H19-C10-N9-C11=172.70         
H20-C10-N9-C7=127.39          H20-C10-N9-C11=293.12         H21-C10-N9-C7=245.91          H21-C10-N9-C11= 51.64         
           -------------------------------------------------
          |                Final Singlepoint                |
           -------------------------------------------------

          ...................................................
          :                      SETUP                      :
          :.................................................:
          :  # basis functions                  67          :
          :  # atomic orbitals                  67          :
          :  # shells                           39          :
          :  # electrons                        74          :
          :  max. iterations                   250          :
          :  Hamiltonian                  GFN2-xTB          :
          :  restarted?                      false          :
          :  GBSA solvation                  false          :
          :  PC potential                    false          :
          :  electronic temp.         5000.0000000     K    :
          :  accuracy                    1.0000000          :
          :  -> integral cutoff          0.2500000E+02      :
          :  -> integral neglect         0.1000000E-07      :
          :  -> SCF convergence          0.1000000E-05 Eh   :
          :  -> wf. convergence          0.1000000E-03 e    :
          :  Broyden damping             0.4000000          :
          ...................................................

 iter      E             dE          RMSdq      gap      omega  full diag
   1    -42.6306440 -0.426306E+02  0.468E-05    1.08       0.0  T
   2    -42.6306440  0.171241E-11  0.332E-05    1.08     601.7  T
   3    -42.6306440  0.811440E-11  0.291E-05    1.08     688.4  T

   *** convergence criteria satisfied after 3 iterations ***

         #    Occupation            Energy/Eh            Energy/eV
      -------------------------------------------------------------
         1        2.0000           -0.9195523             -25.0223
       ...           ...                  ...                  ...
        31        1.9931           -0.6232011             -16.9582
        32        1.9907           -0.6185565             -16.8318
        33        1.9648           -0.5971902             -16.2504
        34        1.9418           -0.5890533             -16.0290
        35        1.9297           -0.5859736             -15.9452
        36        1.8798           -0.5770614             -15.7026
        37        1.6914           -0.5604585             -15.2509 (HOMO)
        38        0.6157           -0.5206948             -14.1688 (LUMO)
        39        0.0017           -0.4212807             -11.4636
        40        0.0002           -0.3895101             -10.5991
        41        0.0000           -0.3483431              -9.4789
        42                         -0.2617412              -7.1223
       ...                                ...                  ...
        67                         10.3530467             281.7207
      -------------------------------------------------------------
                  HL-Gap            0.0397637 Eh            1.0820 eV
             Fermi-level           -0.5335217 Eh          -14.5179 eV

 SCC (total)                   0 d,  0 h,  0 min,  0.023 sec
 SCC setup                      ...        0 min,  0.000 sec (  0.847%)
 Dispersion                     ...        0 min,  0.000 sec (  0.777%)
 classical contributions        ...        0 min,  0.000 sec (  0.311%)
 integral evaluation            ...        0 min,  0.005 sec ( 20.284%)
 iterations                     ...        0 min,  0.005 sec ( 19.995%)
 molecular gradient             ...        0 min,  0.013 sec ( 57.279%)
 printout                       ...        0 min,  0.000 sec (  0.456%)

         :::::::::::::::::::::::::::::::::::::::::::::::::::::
         ::                     SUMMARY                     ::
         :::::::::::::::::::::::::::::::::::::::::::::::::::::
         :: total energy             -59.711778183059 Eh    ::
         :: gradient norm              0.003448456008 Eh/a0 ::
         :: HOMO-LUMO gap              1.082025715830 eV    ::
         ::.................................................::
         :: SCC energy               -42.630643982754 Eh    ::
         :: -> isotropic ES            0.134775049053 Eh    ::
         :: -> anisotropic ES         -0.000789421182 Eh    ::
         :: -> anisotropic XC          0.013526472299 Eh    ::
         :: -> dispersion             -0.022832455731 Eh    ::
         :: repulsion energy           2.232280960771 Eh    ::
         :: add. restraining         -19.313599616943 Eh    ::
         :: total charge               1.000000000000 e     ::
         :::::::::::::::::::::::::::::::::::::::::::::::::::::

           -------------------------------------------------
          |                Property Printout                |
           -------------------------------------------------

    * Orbital Energies and Occupations

         #    Occupation            Energy/Eh            Energy/eV
      -------------------------------------------------------------
         1        2.0000           -0.9195523             -25.0223
       ...           ...                  ...                  ...
        25        1.9998           -0.6766156             -18.4116
        26        1.9996           -0.6685846             -18.1931
        27        1.9994           -0.6613707             -17.9968
        28        1.9985           -0.6478380             -17.6286
        29        1.9976           -0.6397297             -17.4079
        30        1.9966           -0.6346314             -17.2692
        31        1.9931           -0.6232011             -16.9582
        32        1.9907           -0.6185565             -16.8318
        33        1.9648           -0.5971902             -16.2504
        34        1.9418           -0.5890533             -16.0290
        35        1.9297           -0.5859736             -15.9452
        36        1.8798           -0.5770614             -15.7026
        37        1.6914           -0.5604585             -15.2509 (HOMO)
        38        0.6157           -0.5206948             -14.1688 (LUMO)
        39        0.0017           -0.4212807             -11.4636
        40        0.0002           -0.3895101             -10.5991
        41        0.0000           -0.3483431              -9.4789
        42                         -0.2617412              -7.1223
        43                         -0.2234887              -6.0814
        44                         -0.1820546              -4.9540
        45                         -0.1648103              -4.4847
        46                         -0.1454461              -3.9578
        47                         -0.0919140              -2.5011
        48                         -0.0405788              -1.1042
       ...                                ...                  ...
        67                         10.3530467             281.7207
      -------------------------------------------------------------
                  HL-Gap            0.0397637 Eh            1.0820 eV
             Fermi-level           -0.5335217 Eh          -14.5179 eV

     #   Z          covCN         q      C6AA      α(0)
     1   6 C        3.695    -0.090    22.399     6.771
     2   7 N        2.802     0.096    19.581     6.572
     3   6 C        1.958    -0.030    31.880     9.118
     4   7 N        2.774    -0.085    22.901     7.107
     5   6 C        3.755     0.047    19.844     6.352
     6   6 C        3.039     0.017    27.596     8.616
     7   6 C        2.763     0.269    22.453     7.760
     8   8 O        0.858    -0.332    20.372     6.051
     9   7 N        2.745    -0.081    22.813     7.094
    10   6 C        3.706    -0.061    21.824     6.678
    11   6 C        2.708     0.322    21.533     7.596
    12   8 O        0.860    -0.339    20.507     6.072
    13   7 N        2.739    -0.111    23.422     7.188
    14   6 C        3.694    -0.066    21.949     6.703
    15   1 H        0.924     0.123     1.590     1.972
    16   1 H        0.924     0.129     1.543     1.943
    17   1 H        0.925     0.125     1.572     1.961
    18   1 H        0.941     0.183     1.189     1.705
    19   1 H        0.925     0.120     1.617     1.988
    20   1 H        0.924     0.113     1.669     2.020
    21   1 H        0.924     0.117     1.638     2.001
    22   1 H        0.924     0.092     1.857     2.131
    23   1 H        0.924     0.088     1.895     2.153
    24   1 H        0.925     0.127     1.557     1.951
    25   1 H        0.860     0.228     0.975     1.547

 Mol. C6AA /au·bohr⁶  :       6429.178642
 Mol. C8AA /au·bohr⁸  :     147880.466254
 Mol. α(0) /au        :        121.049081


Wiberg/Mayer (AO) data.
largest (>0.10) Wiberg bond orders for each atom

 ---------------------------------------------------------------------------
     #   Z sym  total        # sym  WBO       # sym  WBO       # sym  WBO
 ---------------------------------------------------------------------------
     1   6 C    3.901 --     2 N    1.001    17 H    0.960    15 H    0.943
                            16 H    0.936
     2   7 N    3.607 --     6 C    1.336     3 C    1.169     1 C    1.001
     3   6 C    2.830 --     4 N    1.536     2 N    1.169
     4   7 N    3.488 --     3 C    1.536     5 C    0.922    25 H    0.921
     5   6 C    3.899 --     6 C    1.005    13 N    0.925    18 H    0.923
                             4 N    0.922
     6   6 C    3.611 --     2 N    1.336     7 C    1.057     5 C    1.005
     7   6 C    3.930 --     8 O    1.672     9 N    1.114     6 C    1.057
     8   8 O    1.961 --     7 C    1.672     9 N    0.140
     9   7 N    3.452 --     7 C    1.114    11 C    1.050    10 C    0.982
                             8 O    0.140
    10   6 C    3.873 --     9 N    0.982    19 H    0.962    21 H    0.942
                            20 H    0.941
    11   6 C    3.955 --    12 O    1.681    13 N    1.145     9 N    1.050
    12   8 O    2.002 --    11 C    1.681    13 N    0.141
    13   7 N    3.304 --    11 C    1.145    14 C    0.990     5 C    0.925
                            12 O    0.141
    14   6 C    3.903 --    13 N    0.990    23 H    0.959    22 H    0.956
                            24 H    0.955
    15   1 H    0.972 --     1 C    0.943
    16   1 H    0.968 --     1 C    0.936
    17   1 H    0.981 --     1 C    0.960
    18   1 H    0.955 --     5 C    0.923
    19   1 H    0.979 --    10 C    0.962
    20   1 H    0.958 --    10 C    0.941
    21   1 H    0.960 --    10 C    0.942
    22   1 H    0.971 --    14 C    0.956
    23   1 H    0.974 --    14 C    0.959
    24   1 H    0.978 --    14 C    0.955
    25   1 H    0.947 --     4 N    0.921
 ---------------------------------------------------------------------------

Topologies differ in total number of bonds
Writing topology from bond orders to xtbtopo.mol

molecular dipole:
                 x           y           z       tot (Debye)
 q only:        1.610      -1.319      -0.304
   full:        1.412      -1.535      -0.573       5.499
molecular quadrupole (traceless):
                xx          xy          yy          xz          yz          zz
 q only:        6.836      -3.803       6.945       5.001       3.147     -13.781
  q+dip:        1.998      -3.669       7.367       4.532       4.811      -9.365
   full:        1.221      -3.445       6.801       4.334       4.746      -8.021

           -------------------------------------------------
          |                Geometry Summary                 |
           -------------------------------------------------

      molecular mass/u    :      195.1988581
   center of mass at/Å    :        0.1199852      -0.0112303      -0.0537890
  moments of inertia/u·Å² :        0.5030904E+03   0.6752469E+03   0.1110233E+04
rotational constants/cm⁻¹ :        0.3350815E-01   0.2496514E-01   0.1518387E-01

 * 22 selected distances

     #   Z          #   Z                                           value/Å
     1   6 C        2   7 N                                       1.4317439
     2   7 N        3   6 C                                       1.3703103
     3   6 C        4   7 N                                       1.3027583
     2   7 N        6   6 C                                       1.3406697
     7   6 C        8   8 O                                       1.2105313
     7   6 C        9   7 N                                       1.3864527
     9   7 N       10   6 C                                       1.4499870 (max)
     9   7 N       11   6 C                                       1.4053994
    11   6 C       12   8 O                                       1.2014649
    11   6 C       13   7 N                                       1.3735893
    13   7 N       14   6 C                                       1.4436154
     1   6 C       15   1 H                                       1.0918826
     1   6 C       16   1 H                                       1.0922381
     1   6 C       17   1 H                                       1.0894602
     5   6 C       18   1 H                                       0.4244519 (min)
    10   6 C       19   1 H                                       1.0880109
    10   6 C       20   1 H                                       1.0914086
    10   6 C       21   1 H                                       1.0917246
    14   6 C       22   1 H                                       1.0917344
    14   6 C       23   1 H                                       1.0919937
    14   6 C       24   1 H                                       1.0895615
     4   7 N       25   1 H                                       1.0091064

 * 4 distinct bonds (by element types)

   Z      Z             #   av. dist./Å        max./Å        min./Å
   1 H    6 C          10     1.0242467     1.0922381     0.4244519
   1 H    7 N           1     1.0091064     1.0091064     1.0091064
   6 C    7 N           9     1.3893918     1.4499870     1.3027583
   6 C    8 O           2     1.2059981     1.2105313     1.2014649


optimized geometry written to: xtbopt.xyz


           -------------------------------------------------
          | TOTAL ENERGY              -59.711778183059 Eh   |
          | GRADIENT NORM               0.003448456008 Eh/α |
          | HOMO-LUMO GAP               1.082025715830 eV   |
           -------------------------------------------------

------------------------------------------------------------------------
 * finished run on 2024/06/05 at 19:58:09.469     
------------------------------------------------------------------------
 total:
 * wall-time:     0 d,  0 h,  0 min,  2.762 sec
 *  cpu-time:     0 d,  0 h,  0 min,  2.743 sec
 * ratio c/w:     0.993 speedup
 SCF:
 * wall-time:     0 d,  0 h,  0 min,  0.036 sec
 *  cpu-time:     0 d,  0 h,  0 min,  0.036 sec
 * ratio c/w:     1.000 speedup
 ANC optimizer:
 * wall-time:     0 d,  0 h,  0 min,  2.699 sec
 *  cpu-time:     0 d,  0 h,  0 min,  2.695 sec
 * ratio c/w:     0.999 speedup

