      -----------------------------------------------------------      
     |                   =====================                   |     
     |                           x T B                           |     
     |                   =====================                   |     
     |                         S. Grimme                         |     
     |          Mulliken Center for Theoretical Chemistry        |     
     |                    University of Bonn                     |     
      -----------------------------------------------------------      

   * xtb version 6.6.1 (8d0f1dd) compiled by 'conda@1efc2f54142f' on 2023-08-01

   xtb is free software: you can redistribute it and/or modify it under
   the terms of the GNU Lesser General Public License as published by
   the Free Software Foundation, either version 3 of the License, or
   (at your option) any later version.
   
   xtb is distributed in the hope that it will be useful,
   but WITHOUT ANY WARRANTY; without even the implied warranty of
   MERCHANTABILITY or FITNESS FOR A PARTICULAR PURPOSE.  See the
   GNU Lesser General Public License for more details.
   
   Cite this work as:
   * C. Bannwarth, E. Caldeweyher, S. Ehlert, A. Hansen, P. Pracht,
     J. Seibert, S. Spicher, S. Grimme, WIREs Comput. Mol. Sci., 2020, 11,
     e01493. DOI: 10.1002/wcms.1493
   
   for GFN2-xTB:
   * C. Bannwarth, S. Ehlert and S. Grimme., J. Chem. Theory Comput., 2019,
     15, 1652-1671. DOI: 10.1021/acs.jctc.8b01176
   for GFN1-xTB:
   * S. Grimme, C. Bannwarth, P. Shushkov, J. Chem. Theory Comput., 2017,
     13, 1989-2009. DOI: 10.1021/acs.jctc.7b00118
   for GFN0-xTB:
   * P. Pracht, E. Caldeweyher, S. Ehlert, S. Grimme, ChemRxiv, 2019, preprint.
     DOI: 10.26434/chemrxiv.8326202.v1
   for GFN-FF:
   * S. Spicher and S. Grimme, Angew. Chem. Int. Ed., 2020, 59, 15665-15673.
     DOI: 10.1002/anie.202004239
   
   for ALPB and GBSA implicit solvation:
   * S. Ehlert, M. Stahn, S. Spicher, S. Grimme, J. Chem. Theory Comput.,
     2021, 17, 4250-4261. DOI: 10.1021/acs.jctc.1c00471
   
   for DFT-D4:
   * E. Caldeweyher, C. Bannwarth and S. Grimme, J. Chem. Phys., 2017,
     147, 034112. DOI: 10.1063/1.4993215
   * E. Caldeweyher, S. Ehlert, A. Hansen, H. Neugebauer, S. Spicher,
     C. Bannwarth and S. Grimme, J. Chem. Phys., 2019, 150, 154122.
     DOI: 10.1063/1.5090222
   * E. Caldeweyher, J.-M. Mewes, S. Ehlert and S. Grimme, Phys. Chem. Chem. Phys.
     2020, 22, 8499-8512. DOI: 10.1039/D0CP00502A
   
   for sTDA-xTB:
   * S. Grimme and C. Bannwarth, J. Chem. Phys., 2016, 145, 054103.
     DOI: 10.1063/1.4959605
   
   in the mass-spec context:
   * V. Asgeirsson, C. Bauer and S. Grimme, Chem. Sci., 2017, 8, 4879.
     DOI: 10.1039/c7sc00601b
   * J. Koopman and S. Grimme, ACS Omega 2019, 4, 12, 15120-15133.
     DOI: 10.1021/acsomega.9b02011
   
   for metadynamics refer to:
   * S. Grimme, J. Chem. Theory Comput., 2019, 155, 2847-2862
     DOI: 10.1021/acs.jctc.9b00143
   
   for SPH calculations refer to:
   * S. Spicher and S. Grimme, J. Chem. Theory Comput., 2021, 17, 1701-1714
     DOI: 10.1021/acs.jctc.0c01306
   
   with help from (in alphabetical order)
   P. Atkinson, C. Bannwarth, F. Bohle, G. Brandenburg, E. Caldeweyher
   M. Checinski, S. Dohm, S. Ehlert, S. Ehrlich, I. Gerasimov, C. Hölzer
   A. Katbashev, J. Koopman, C. Lavigne, S. Lehtola, F. März, M. Müller,
   F. Musil, H. Neugebauer, J. Pisarek, C. Plett, P. Pracht, F. Pultar,
   J. Seibert, P. Shushkov, S. Spicher, M. Stahn, M. Steiner, T. Strunk,
   J. Stückrath, T. Rose, and J. Unsleber
   
 * started run on 2024/06/05 at 19:58:05.051     

           -------------------------------------------------
          |                Calculation Setup                |
           -------------------------------------------------

          program call               : xtb xtbopt.xyz --opt crude --input .xc2 --gfn2
          hostname                   : n-62-21-68
          coordinate file            : xtbopt.xyz
          omp threads                :                     1

   ID    Z sym.   atoms
    1    6 C      1, 3, 5-7, 10, 11, 14
    2    7 N      2, 4, 9, 13
    3    8 O      8, 12
    4    1 H      15-25
########################################################################
[WARNING] Please study the warnings concerning your input carefully
-1- readin_getIntValue: could not parse ''
########################################################################

           -------------------------------------------------
          |                 G F N 2 - x T B                 |
           -------------------------------------------------

        Reference                      10.1021/acs.jctc.8b01176
      * Hamiltonian:
        H0-scaling (s, p, d)           1.850000    2.230000    2.230000
        zeta-weighting                 0.500000
      * Dispersion:
        s8                             2.700000
        a1                             0.520000
        a2                             5.000000
        s9                             5.000000
      * Repulsion:
        kExp                           1.500000    1.000000
        rExp                           1.000000
      * Coulomb:
        alpha                          2.000000
        third order                    shell-resolved
        anisotropic                    true
        a3                             3.000000
        a5                             4.000000
        cn-shift                       1.200000
        cn-exp                         4.000000
        max-rad                        5.000000

q/qsh data taken from xtbrestart
CAMM data taken from xtbrestart

          ...................................................
          :                      SETUP                      :
          :.................................................:
          :  # basis functions                  67          :
          :  # atomic orbitals                  67          :
          :  # shells                           39          :
          :  # electrons                        74          :
          :  max. iterations                   250          :
          :  Hamiltonian                  GFN2-xTB          :
          :  restarted?                       true          :
          :  GBSA solvation                  false          :
          :  PC potential                    false          :
          :  electronic temp.         5000.0000000     K    :
          :  accuracy                    1.0000000          :
          :  -> integral cutoff          0.2500000E+02      :
          :  -> integral neglect         0.1000000E-07      :
          :  -> SCF convergence          0.1000000E-05 Eh   :
          :  -> wf. convergence          0.1000000E-03 e    :
          :  Broyden damping             0.4000000          :
          ...................................................

 iter      E             dE          RMSdq      gap      omega  full diag
   1    -42.6211118 -0.426211E+02  0.279E-05    1.22       0.0  T
   2    -42.6211118  0.179483E-09  0.666E-05    1.22     300.2  T
   3    -42.6211118 -0.204935E-09  0.986E-06    1.22    2028.7  T

   *** convergence criteria satisfied after 3 iterations ***

         #    Occupation            Energy/Eh            Energy/eV
      -------------------------------------------------------------
         1        2.0000           -0.9279467             -25.2507
       ...           ...                  ...                  ...
        31        1.9995           -0.6030950             -16.4110
        32        1.9993           -0.5980028             -16.2725
        33        1.9965           -0.5731244             -15.5955
        34        1.9960           -0.5710652             -15.5395
        35        1.9781           -0.5441601             -14.8073
        36        1.8040           -0.5079721             -13.8226
        37        1.6276           -0.4961792             -13.5017 (HOMO)
        38        0.4086           -0.4512987             -12.2805 (LUMO)
        39        0.1462           -0.4326061             -11.7718
        40        0.0424           -0.4121459             -11.2151
        41        0.0022           -0.3650225              -9.9328
        42        0.0000           -0.2984142              -8.1203
       ...           ...                  ...                  ...
        67                          0.7289170              19.8348
      -------------------------------------------------------------
                  HL-Gap            0.0448805 Eh            1.2213 eV
             Fermi-level           -0.4728261 Eh          -12.8663 eV

 SCC (total)                   0 d,  0 h,  0 min,  0.025 sec
 SCC setup                      ...        0 min,  0.000 sec (  1.138%)
 Dispersion                     ...        0 min,  0.000 sec (  1.393%)
 classical contributions        ...        0 min,  0.000 sec (  0.366%)
 integral evaluation            ...        0 min,  0.006 sec ( 24.759%)
 iterations                     ...        0 min,  0.006 sec ( 22.276%)
 molecular gradient             ...        0 min,  0.013 sec ( 49.422%)
 printout                       ...        0 min,  0.000 sec (  0.589%)

         :::::::::::::::::::::::::::::::::::::::::::::::::::::
         ::                     SUMMARY                     ::
         :::::::::::::::::::::::::::::::::::::::::::::::::::::
         :: total energy             -42.099637913357 Eh    ::
         :: gradient norm              0.024038983036 Eh/a0 ::
         :: HOMO-LUMO gap              1.221260475002 eV    ::
         ::.................................................::
         :: SCC energy               -42.621111809675 Eh    ::
         :: -> isotropic ES            0.130883318673 Eh    ::
         :: -> anisotropic ES         -0.010247380137 Eh    ::
         :: -> anisotropic XC          0.020926438806 Eh    ::
         :: -> dispersion             -0.021599908177 Eh    ::
         :: repulsion energy           0.521245185974 Eh    ::
         :: add. restraining           0.000000000000 Eh    ::
         :: total charge               1.000000000009 e     ::
         :::::::::::::::::::::::::::::::::::::::::::::::::::::

      ----------------------------------------------------------- 
     |                   =====================                   |
     |                        A N C O P T                        |
     |                   =====================                   |
     |               Approximate Normal Coordinate               |
     |                Rational Function Optimizer                |
      ----------------------------------------------------------- 

          ...................................................
          :                      SETUP                      :
          :.................................................:
          :   optimization level             crude          :
          :   max. optcycles                   200          :
          :   ANC micro-cycles                  20          :
          :   degrees of freedom                69          :
          :.................................................:
          :   RF solver                   davidson          :
          :   write xtbopt.log                true          :
          :   linear?                        false          :
          :   energy convergence         0.5000000E-03 Eh   :
          :   grad. convergence          0.1000000E-01 Eh/α :
          :   maxmium RF displ.          1.0000000          :
          :   Hlow (freq-cutoff)         0.1000000E-01      :
          :   Hmax (freq-cutoff)         5.0000000          :
          :   S6 in model hess.         20.0000000          :
          ...................................................

generating ANC from model Hessian ...
Using Lindh-Hessian (1995)
 Shifting diagonal of input Hessian by    9.1075135068430756E-003
 Lowest  eigenvalues of input Hessian
    0.000000    0.000000    0.000000    0.000000    0.000000    0.000000
    0.010000    0.010443    0.010998    0.012426    0.014207    0.014267
    0.016059    0.019487    0.021374    0.022975    0.025341    0.028940
 Highest eigenvalues
    1.913690    2.119822    2.185586    2.236718    2.308937    2.466114


........................................................................
.............................. CYCLE    1 ..............................
........................................................................

 iter      E             dE          RMSdq      gap      omega  full diag
   1    -42.6211118 -0.426211E+02  0.596E-06    1.22       0.0  T
   2    -42.6211118  0.184741E-12  0.456E-06    1.22    4386.7  T
   3    -42.6211118  0.170530E-12  0.420E-06    1.22    4759.9  T
     SCC iter.                  ...        0 min,  0.005 sec
     gradient                   ...        0 min,  0.013 sec
 * total energy  :   -42.0996379 Eh     change       -0.6323830E-12 Eh
   gradient norm :     0.0240390 Eh/α   predicted     0.0000000E+00 (-100.00%)
   displ. norm   :     0.2285636 α      lambda       -0.2639728E-02
   maximum displ.:     0.0976332 α      in ANC's #5, #7, #18, ...

........................................................................
.............................. CYCLE    2 ..............................
........................................................................

 iter      E             dE          RMSdq      gap      omega  full diag
   1    -42.6296578 -0.426297E+02  0.145E-01    1.21       0.0  T
   2    -42.6291920  0.465849E-03  0.142E-01    1.29       1.0  T
   3    -42.6291327  0.592161E-04  0.126E-01    1.17       1.0  T
   4    -42.6297357 -0.602942E-03  0.184E-02    1.23       1.1  T
   5    -42.6297417 -0.598679E-05  0.422E-03    1.23       4.7  T
   6    -42.6297420 -0.301464E-06  0.254E-03    1.23       7.9  T
   7    -42.6297421 -0.874311E-07  0.739E-04    1.23      27.1  T
   8    -42.6297421 -0.145241E-07  0.277E-04    1.23      72.1  T
     SCC iter.                  ...        0 min,  0.011 sec
     gradient                   ...        0 min,  0.013 sec
 * total energy  :   -42.1015822 Eh     change       -0.1944253E-02 Eh
   gradient norm :     0.0133352 Eh/α   predicted    -0.1388849E-02 ( -28.57%)
   displ. norm   :     0.2325538 α      lambda       -0.1288659E-02
   maximum displ.:     0.1037773 α      in ANC's #5, #6, #1, ...

........................................................................
.............................. CYCLE    3 ..............................
........................................................................

 iter      E             dE          RMSdq      gap      omega  full diag
   1    -42.6343572 -0.426344E+02  0.153E-01    1.20       0.0  T
   2    -42.6325864  0.177078E-02  0.230E-01    1.35       1.0  T
   3    -42.6345295 -0.194315E-02  0.823E-02    1.21       1.0  T
   4    -42.6346238 -0.942657E-04  0.217E-02    1.23       1.0  T
   5    -42.6346320 -0.825028E-05  0.490E-03    1.23       4.1  T
   6    -42.6346323 -0.267064E-06  0.240E-03    1.23       8.3  T
   7    -42.6346324 -0.591568E-07  0.939E-04    1.23      21.3  T
   8    -42.6346324 -0.167469E-07  0.259E-04    1.23      77.2  T
     SCC iter.                  ...        0 min,  0.011 sec
     gradient                   ...        0 min,  0.013 sec
 * total energy  :   -42.1023152 Eh     change       -0.7330694E-03 Eh
   gradient norm :     0.0062756 Eh/α   predicted    -0.6792066E-03 (  -7.35%)
   displ. norm   :     0.1023387 α      lambda       -0.1707539E-03
   maximum displ.:     0.0570777 α      in ANC's #1, #4, #6, ...

........................................................................
.............................. CYCLE    4 ..............................
........................................................................

 iter      E             dE          RMSdq      gap      omega  full diag
   1    -42.6349086 -0.426349E+02  0.541E-02    1.21       0.0  T
   2    -42.6346508  0.257726E-03  0.843E-02    1.27       1.0  T
   3    -42.6349247 -0.273908E-03  0.314E-02    1.21       1.0  T
   4    -42.6349453 -0.205128E-04  0.846E-03    1.23       2.4  T
   5    -42.6349466 -0.130476E-05  0.218E-03    1.23       9.2  T
   6    -42.6349466 -0.837383E-07  0.850E-04    1.23      23.5  T
   7    -42.6349467 -0.227853E-08  0.364E-04    1.23      54.9  T
     SCC iter.                  ...        0 min,  0.010 sec
     gradient                   ...        0 min,  0.013 sec
 * total energy  :   -42.1024573 Eh     change       -0.1420628E-03 Eh
   gradient norm :     0.0040933 Eh/α   predicted    -0.8627147E-04 ( -39.27%)
   displ. norm   :     0.2718047 α      lambda       -0.3493051E-03
   maximum displ.:     0.1490489 α      in ANC's #4, #1, #6, ...

   *** GEOMETRY OPTIMIZATION CONVERGED AFTER 4 ITERATIONS ***

------------------------------------------------------------------------
 total energy gain   :        -0.0028194 Eh       -1.7692 kcal/mol
 total RMSD          :         0.1051221 a0        0.0556 Å
 total power (kW/mol):        -1.8505738 (step)  -60.6546 (real)
------------------------------------------------------------------------

 ANCopt (total)                0 d,  0 h,  0 min,  0.122 sec
 optimizer setup                ...        0 min,  0.000 sec (  0.335%)
 model hessian                  ...        0 min,  0.009 sec (  7.424%)
 ANC generation                 ...        0 min,  0.001 sec (  0.706%)
 coordinate transformation      ...        0 min,  0.000 sec (  0.032%)
 single point calculation       ...        0 min,  0.109 sec ( 89.544%)
 optimization log               ...        0 min,  0.002 sec (  1.417%)
 hessian update                 ...        0 min,  0.000 sec (  0.037%)
 rational function              ...        0 min,  0.000 sec (  0.242%)

================
 final structure:
================
25
 xtb: 6.6.1 (8d0f1dd)
C            2.08044426695973        1.54919130288744       -0.32372314749499
N            1.69372391804212        0.16085071812612       -0.30164324502839
C            2.50797447220531       -0.81236827847176       -0.67865464073523
N            1.93720581641580       -1.99465686091003       -0.46933265939738
C            0.67349026218661       -1.82724509288091        0.11293886247443
C            0.51827927965739       -0.39204457936681        0.19766706993657
C           -0.57555282640392        0.30789046653016        0.79623427928969
O           -1.40282394667086       -0.20076278392528        1.53169444366136
N           -0.65486239963113        1.71626918683686        0.54394605503915
C           -1.13742403800478        2.16910015510918       -0.75471877454779
C           -2.54901190341642        1.90348459993103       -0.90010490749427
O           -3.61010241574608        1.56866338946210       -0.58516115633417
N            0.01959123134854       -2.88941125860644        0.37897276279649
C           -1.24298681969838       -3.09588822397513        0.96422139715051
H            1.59074422599984        2.08148104922469        0.48818711574418
H            3.16001472072873        1.62036443387041       -0.20258302163371
H            1.80983649395274        2.01600411759969       -1.27207583804834
H            3.49045687924054       -0.66155372499237       -1.08364760404785
H           -1.19321839642497        2.13853084496187        1.29894591598771
H           -0.58479773911692        1.67206223426108       -1.56001194449091
H           -0.97061609898630        3.25177670717833       -0.84215140099182
H           -1.13735309661755       -3.90237715549000        1.69440953775256
H           -1.93479377228950       -3.44551546149116        0.19269226646208
H           -1.65749026992635       -2.20812947773624        1.45029524665094
H            2.32970367029754       -2.90747776652820       -0.64522499480150

 Bond Distances (Angstroems)
 ---------------------------
C1-N2=1.4414         C1-H15=1.0874        C1-H16=1.0887        C1-H17=1.0911        N2-C1=1.4414         N2-C3=1.3237         
N2-C6=1.3916         C3-N2=1.3237         C3-N4=1.3294         C3-H18=1.0733        N4-C3=1.3294         N4-C5=1.4014         
N4-H25=1.0091        C5-N4=1.4014         C5-C6=1.4461         C5-N13=1.2754        C6-N2=1.3916         C6-C5=1.4461         
C6-C7=1.4299         C7-C6=1.4299         C7-O8=1.2182         C7-N9=1.4330         O8-C7=1.2182         N9-C7=1.4330         
N9-C10=1.4576        N9-H19=1.0189        C10-N9=1.4576        C10-C11=1.4437       C10-H20=1.0959       C10-H21=1.0989       
C11-C10=1.4437       C11-O12=1.1564       O12-C11=1.1564       N13-C5=1.2754        N13-C14=1.4069       C14-N13=1.4069       
C14-H22=1.0930       C14-H23=1.0937       C14-H24=1.0937       H15-C1=1.0874        H16-C1=1.0887        H17-C1=1.0911        
H18-C3=1.0733        H19-N9=1.0189        H20-C10=1.0959       H21-C10=1.0989       H22-C14=1.0930       H23-C14=1.0937       
H24-C14=1.0937       H25-N4=1.0091        
 C  H  Rav=1.0906 sigma=0.0070  Rmin=1.0733  Rmax=1.0989     9
 C  C  Rav=1.4399 sigma=0.0071  Rmin=1.4299  Rmax=1.4461     3
 N  H  Rav=1.0140 sigma=0.0049  Rmin=1.0091  Rmax=1.0189     2
 N  C  Rav=1.3845 sigma=0.0581  Rmin=1.2754  Rmax=1.4576     9
 O  C  Rav=1.1873 sigma=0.0309  Rmin=1.1564  Rmax=1.2182     2

 selected bond angles (degree)
 --------------------
H15-C1-N2=109.83               H16-C1-N2=109.11               H16-C1-H15=109.36              H17-C1-N2=111.03               
H17-C1-H15=109.14              H17-C1-H16=108.34              C3-N2-C1=122.60                C6-N2-C1=127.94                
C6-N2-C3=109.25                N4-C3-N2=110.18                H18-C3-N2=124.56               H18-C3-N4=125.27               
C5-N4-C3=110.26                H25-N4-C3=127.59               H25-N4-C5=122.09               C6-C5-N4=103.87                
N13-C5-N4=116.71               N13-C5-C6=139.41               C5-C6-N2=106.42                C7-C6-N2=127.00                
C7-C6-C5=126.33                O8-C7-C6=124.60                N9-C7-C6=116.73                N9-C7-O8=118.63                
C10-N9-C7=118.72               H19-N9-C7=107.82               H19-N9-C10=110.89              C11-C10-N9=110.87              
H20-C10-N9=110.30              H20-C10-C11=109.61             H21-C10-N9=109.07              H21-C10-C11=108.76             
H21-C10-H20=108.17             

 selected dihedral angles (degree)
 ---------------------------------
C3-N2-C1-H15=212.71           C3-N2-C1-H16=332.57           C3-N2-C1-H17= 91.91           C6-N2-C1-H15= 26.77           
C6-N2-C1-H16=146.63           C6-N2-C1-H17=265.97           N4-C3-N2-C1=175.55            N4-C3-N2-C6=  0.51            
H18-C3-N2-C1=356.20           H18-C3-N2-C6=181.16           C5-N4-C3-N2=358.53            C5-N4-C3-H18=177.88           
H25-N4-C3-N2=181.25           H25-N4-C3-H18=  0.59          C6-C5-N4-C3=  1.75            C6-C5-N4-H25=179.21           
N13-C5-N4-C3=180.63           N13-C5-N4-H25=358.09          C5-C6-N2-C1=185.90            C5-C6-N2-C3=  0.60            
C7-C6-N2-C1=  0.41            C7-C6-N2-C3=175.12            N2-C6-C5-N4=358.61            N2-C6-C5-N13=180.15           
C7-C6-C5-N4=184.04            C7-C6-C5-N13=  5.58           O8-C7-C6-N2=200.84            O8-C7-C6-C5= 14.31            
N9-C7-C6-N2= 18.22            N9-C7-C6-C5=191.68            C10-N9-C7-C6= 76.43           C10-N9-C7-O8=253.97           
H19-N9-C7-C6=203.53           H19-N9-C7-O8= 21.07           C11-C10-N9-C7= 70.01          C11-C10-N9-H19=304.37         
H20-C10-N9-C7=308.41          H20-C10-N9-H19=182.77         H21-C10-N9-C7=189.75          H21-C10-N9-H19= 64.11         
           -------------------------------------------------
          |                Final Singlepoint                |
           -------------------------------------------------

          ...................................................
          :                      SETUP                      :
          :.................................................:
          :  # basis functions                  67          :
          :  # atomic orbitals                  67          :
          :  # shells                           39          :
          :  # electrons                        74          :
          :  max. iterations                   250          :
          :  Hamiltonian                  GFN2-xTB          :
          :  restarted?                      false          :
          :  GBSA solvation                  false          :
          :  PC potential                    false          :
          :  electronic temp.         5000.0000000     K    :
          :  accuracy                    1.0000000          :
          :  -> integral cutoff          0.2500000E+02      :
          :  -> integral neglect         0.1000000E-07      :
          :  -> SCF convergence          0.1000000E-05 Eh   :
          :  -> wf. convergence          0.1000000E-03 e    :
          :  Broyden damping             0.4000000          :
          ...................................................

 iter      E             dE          RMSdq      gap      omega  full diag
   1    -42.6349467 -0.426349E+02  0.122E-04    1.23       0.0  T
   2    -42.6349467  0.516778E-10  0.855E-05    1.23     233.8  T
   3    -42.6349467  0.490900E-09  0.126E-04    1.23     158.7  T

   *** convergence criteria satisfied after 3 iterations ***

         #    Occupation            Energy/Eh            Energy/eV
      -------------------------------------------------------------
         1        2.0000           -0.9262217             -25.2038
       ...           ...                  ...                  ...
        31        1.9995           -0.6031663             -16.4130
        32        1.9994           -0.6002063             -16.3324
        33        1.9970           -0.5745748             -15.6350
        34        1.9959           -0.5693174             -15.4919
        35        1.9785           -0.5430721             -14.7777
        36        1.7638           -0.5032724             -13.6947
        37        1.6483           -0.4958942             -13.4940 (HOMO)
        38        0.4283           -0.4508486             -12.2682 (LUMO)
        39        0.1445           -0.4310217             -11.7287
        40        0.0429           -0.4109383             -11.1822
        41        0.0021           -0.3629327              -9.8759
        42        0.0000           -0.2917540              -7.9390
       ...           ...                  ...                  ...
        67                          0.7289956              19.8370
      -------------------------------------------------------------
                  HL-Gap            0.0450456 Eh            1.2258 eV
             Fermi-level           -0.4714359 Eh          -12.8284 eV

 SCC (total)                   0 d,  0 h,  0 min,  0.023 sec
 SCC setup                      ...        0 min,  0.000 sec (  0.829%)
 Dispersion                     ...        0 min,  0.000 sec (  0.822%)
 classical contributions        ...        0 min,  0.000 sec (  0.304%)
 integral evaluation            ...        0 min,  0.005 sec ( 21.393%)
 iterations                     ...        0 min,  0.005 sec ( 21.004%)
 molecular gradient             ...        0 min,  0.013 sec ( 55.055%)
 printout                       ...        0 min,  0.000 sec (  0.535%)

         :::::::::::::::::::::::::::::::::::::::::::::::::::::
         ::                     SUMMARY                     ::
         :::::::::::::::::::::::::::::::::::::::::::::::::::::
         :: total energy             -42.102457300149 Eh    ::
         :: gradient norm              0.004094125399 Eh/a0 ::
         :: HOMO-LUMO gap              1.225753170483 eV    ::
         ::.................................................::
         :: SCC energy               -42.634946653089 Eh    ::
         :: -> isotropic ES            0.130865322700 Eh    ::
         :: -> anisotropic ES         -0.010156166334 Eh    ::
         :: -> anisotropic XC          0.020125480028 Eh    ::
         :: -> dispersion             -0.021744241317 Eh    ::
         :: repulsion energy           0.532257312831 Eh    ::
         :: add. restraining           0.000000000000 Eh    ::
         :: total charge               1.000000001562 e     ::
         :::::::::::::::::::::::::::::::::::::::::::::::::::::

           -------------------------------------------------
          |                Property Printout                |
           -------------------------------------------------

    * Orbital Energies and Occupations

         #    Occupation            Energy/Eh            Energy/eV
      -------------------------------------------------------------
         1        2.0000           -0.9262217             -25.2038
       ...           ...                  ...                  ...
        25        2.0000           -0.6656154             -18.1123
        26        2.0000           -0.6546449             -17.8138
        27        2.0000           -0.6423784             -17.4800
        28        1.9999           -0.6387891             -17.3823
        29        1.9999           -0.6321198             -17.2009
        30        1.9999           -0.6302613             -17.1503
        31        1.9995           -0.6031663             -16.4130
        32        1.9994           -0.6002063             -16.3324
        33        1.9970           -0.5745748             -15.6350
        34        1.9959           -0.5693174             -15.4919
        35        1.9785           -0.5430721             -14.7777
        36        1.7638           -0.5032724             -13.6947
        37        1.6483           -0.4958942             -13.4940 (HOMO)
        38        0.4283           -0.4508486             -12.2682 (LUMO)
        39        0.1445           -0.4310217             -11.7287
        40        0.0429           -0.4109383             -11.1822
        41        0.0021           -0.3629327              -9.8759
        42        0.0000           -0.2917540              -7.9390
        43                         -0.1740807              -4.7370
        44                         -0.1481367              -4.0310
        45                         -0.1217227              -3.3122
        46                         -0.0651301              -1.7723
        47                         -0.0647042              -1.7607
        48                         -0.0502594              -1.3676
       ...                                ...                  ...
        67                          0.7289956              19.8370
      -------------------------------------------------------------
                  HL-Gap            0.0450456 Eh            1.2258 eV
             Fermi-level           -0.4714359 Eh          -12.8284 eV

     #   Z          covCN         q      C6AA      α(0)
     1   6 C        3.695    -0.091    22.411     6.772
     2   7 N        2.818     0.052    20.329     6.696
     3   6 C        2.982     0.068    26.471     8.440
     4   7 N        2.799    -0.074    22.669     7.071
     5   6 C        2.941     0.142    24.898     8.184
     6   6 C        3.050    -0.041    28.980     8.829
     7   6 C        2.750     0.264    22.546     7.775
     8   8 O        0.858    -0.392    21.526     6.221
     9   7 N        2.687    -0.233    26.109     7.589
    10   6 C        3.738    -0.001    20.677     6.489
    11   6 C        1.842     0.223    25.919     8.224
    12   8 O        0.856    -0.073    16.126     5.384
    13   7 N        1.835    -0.191    25.954     7.550
    14   6 C        3.690    -0.047    21.618     6.654
    15   1 H        0.925     0.111     1.684     2.030
    16   1 H        0.925     0.098     1.803     2.100
    17   1 H        0.924     0.088     1.894     2.152
    18   1 H        0.926     0.108     1.711     2.045
    19   1 H        0.860     0.201     1.103     1.645
    20   1 H        0.924     0.123     1.586     1.969
    21   1 H        0.923     0.140     1.464     1.892
    22   1 H        0.924     0.099     1.797     2.097
    23   1 H        0.924     0.091     1.865     2.136
    24   1 H        0.924     0.105     1.737     2.061
    25   1 H        0.860     0.228     0.973     1.545

 Mol. C6AA /au·bohr⁶  :       6576.761724
 Mol. C8AA /au·bohr⁸  :     151327.942731
 Mol. α(0) /au        :        123.550205


Wiberg/Mayer (AO) data.
largest (>0.10) Wiberg bond orders for each atom

 ---------------------------------------------------------------------------
     #   Z sym  total        # sym  WBO       # sym  WBO       # sym  WBO
 ---------------------------------------------------------------------------
     1   6 C    3.935 --     2 N    0.990    16 H    0.972    17 H    0.963
                            15 H    0.963
     2   7 N    3.658 --     3 C    1.382     6 C    1.123     1 C    0.990
                             4 N    0.105
     3   6 C    3.879 --     2 N    1.382     4 N    1.339    18 H    0.952
     4   7 N    3.550 --     3 C    1.339     5 C    1.074    25 H    0.920
                             2 N    0.105
     5   6 C    3.940 --    13 N    1.570     6 C    1.150     4 N    1.074
     6   6 C    3.744 --     7 C    1.162     5 C    1.150     2 N    1.123
     7   6 C    3.918 --     8 O    1.658     6 C    1.162     9 N    1.007
     8   8 O    1.963 --     7 C    1.658
     9   7 N    3.167 --     7 C    1.007    10 C    0.973    19 H    0.931
    10   6 C    3.950 --    11 C    1.071     9 N    0.973    20 H    0.921
                            21 H    0.911
    11   6 C    3.338 --    12 O    2.158    10 C    1.071
    12   8 O    2.292 --    11 C    2.158
    13   7 N    2.839 --     5 C    1.570    14 C    1.069
    14   6 C    3.893 --    13 N    1.069    22 H    0.936    23 H    0.930
                            24 H    0.913
    15   1 H    0.987 --     1 C    0.963
    16   1 H    0.989 --     1 C    0.972
    17   1 H    0.989 --     1 C    0.963
    18   1 H    0.986 --     3 C    0.952
    19   1 H    0.959 --     9 N    0.931
    20   1 H    0.974 --    10 C    0.921
    21   1 H    0.969 --    10 C    0.911
    22   1 H    0.957 --    14 C    0.936
    23   1 H    0.959 --    14 C    0.930
    24   1 H    0.940 --    14 C    0.913
    25   1 H    0.947 --     4 N    0.920
 ---------------------------------------------------------------------------

Topologies differ in total number of bonds
Writing topology from bond orders to xtbtopo.mol

molecular dipole:
                 x           y           z       tot (Debye)
 q only:        1.796       0.893      -1.583
   full:        1.873       1.105      -1.704       7.022
molecular quadrupole (traceless):
                xx          xy          yy          xz          yz          zz
 q only:        3.787      -6.828      13.926      -1.524      -4.544     -17.712
  q+dip:        5.408      -9.903      12.358      -2.481      -2.900     -17.766
   full:        4.192      -9.959      11.998      -1.149      -2.987     -16.190

           -------------------------------------------------
          |                Geometry Summary                 |
           -------------------------------------------------

      molecular mass/u    :      195.1988581
   center of mass at/Å    :       -0.1536772      -0.1176036       0.0499349
  moments of inertia/u·Å² :        0.5390444E+03   0.8968826E+03   0.1277935E+04
rotational constants/cm⁻¹ :        0.3127318E-01   0.1879581E-01   0.1319131E-01

 * 23 selected distances

     #   Z          #   Z                                           value/Å
     1   6 C        2   7 N                                       1.4413640
     2   7 N        3   6 C                                       1.3237436
     3   6 C        4   7 N                                       1.3294357
     4   7 N        5   6 C                                       1.4014436
     2   7 N        6   6 C                                       1.3916445
     5   6 C        6   6 C                                       1.4460533
     6   6 C        7   6 C                                       1.4299164
     7   6 C        8   8 O                                       1.2181985
     9   7 N       10   6 C                                       1.4575501 (max)
    11   6 C       12   8 O                                       1.1563772
     5   6 C       13   7 N                                       1.2753647
    13   7 N       14   6 C                                       1.4068591
     1   6 C       15   1 H                                       1.0873532
     1   6 C       16   1 H                                       1.0886749
     1   6 C       17   1 H                                       1.0911076
     3   6 C       18   1 H                                       1.0733295
     9   7 N       19   1 H                                       1.0188999
    10   6 C       20   1 H                                       1.0958740
    10   6 C       21   1 H                                       1.0989350
    14   6 C       22   1 H                                       1.0930498
    14   6 C       23   1 H                                       1.0936606
    14   6 C       24   1 H                                       1.0937078
     4   7 N       25   1 H                                       1.0090762 (min)

 * 5 distinct bonds (by element types)

   Z      Z             #   av. dist./Å        max./Å        min./Å
   1 H    6 C           9     1.0906325     1.0989350     1.0733295
   6 C    6 C           2     1.4379848     1.4460533     1.4299164
   1 H    7 N           2     1.0139881     1.0188999     1.0090762
   6 C    7 N           8     1.3784257     1.4575501     1.2753647
   6 C    8 O           2     1.1872878     1.2181985     1.1563772


optimized geometry written to: xtbopt.xyz


           -------------------------------------------------
          | TOTAL ENERGY              -42.102457300149 Eh   |
          | GRADIENT NORM               0.004094125399 Eh/α |
          | HOMO-LUMO GAP               1.225753170483 eV   |
           -------------------------------------------------

------------------------------------------------------------------------
 * finished run on 2024/06/05 at 19:58:05.256     
------------------------------------------------------------------------
 total:
 * wall-time:     0 d,  0 h,  0 min,  0.205 sec
 *  cpu-time:     0 d,  0 h,  0 min,  0.183 sec
 * ratio c/w:     0.892 speedup
 SCF:
 * wall-time:     0 d,  0 h,  0 min,  0.026 sec
 *  cpu-time:     0 d,  0 h,  0 min,  0.026 sec
 * ratio c/w:     1.000 speedup
 ANC optimizer:
 * wall-time:     0 d,  0 h,  0 min,  0.150 sec
 *  cpu-time:     0 d,  0 h,  0 min,  0.145 sec
 * ratio c/w:     0.965 speedup

