      -----------------------------------------------------------      
     |                   =====================                   |     
     |                           x T B                           |     
     |                   =====================                   |     
     |                         S. Grimme                         |     
     |          Mulliken Center for Theoretical Chemistry        |     
     |                    University of Bonn                     |     
      -----------------------------------------------------------      

   * xtb version 6.6.1 (8d0f1dd) compiled by 'conda@1efc2f54142f' on 2023-08-01

   xtb is free software: you can redistribute it and/or modify it under
   the terms of the GNU Lesser General Public License as published by
   the Free Software Foundation, either version 3 of the License, or
   (at your option) any later version.
   
   xtb is distributed in the hope that it will be useful,
   but WITHOUT ANY WARRANTY; without even the implied warranty of
   MERCHANTABILITY or FITNESS FOR A PARTICULAR PURPOSE.  See the
   GNU Lesser General Public License for more details.
   
   Cite this work as:
   * C. Bannwarth, E. Caldeweyher, S. Ehlert, A. Hansen, P. Pracht,
     J. Seibert, S. Spicher, S. Grimme, WIREs Comput. Mol. Sci., 2020, 11,
     e01493. DOI: 10.1002/wcms.1493
   
   for GFN2-xTB:
   * C. Bannwarth, S. Ehlert and S. Grimme., J. Chem. Theory Comput., 2019,
     15, 1652-1671. DOI: 10.1021/acs.jctc.8b01176
   for GFN1-xTB:
   * S. Grimme, C. Bannwarth, P. Shushkov, J. Chem. Theory Comput., 2017,
     13, 1989-2009. DOI: 10.1021/acs.jctc.7b00118
   for GFN0-xTB:
   * P. Pracht, E. Caldeweyher, S. Ehlert, S. Grimme, ChemRxiv, 2019, preprint.
     DOI: 10.26434/chemrxiv.8326202.v1
   for GFN-FF:
   * S. Spicher and S. Grimme, Angew. Chem. Int. Ed., 2020, 59, 15665-15673.
     DOI: 10.1002/anie.202004239
   
   for ALPB and GBSA implicit solvation:
   * S. Ehlert, M. Stahn, S. Spicher, S. Grimme, J. Chem. Theory Comput.,
     2021, 17, 4250-4261. DOI: 10.1021/acs.jctc.1c00471
   
   for DFT-D4:
   * E. Caldeweyher, C. Bannwarth and S. Grimme, J. Chem. Phys., 2017,
     147, 034112. DOI: 10.1063/1.4993215
   * E. Caldeweyher, S. Ehlert, A. Hansen, H. Neugebauer, S. Spicher,
     C. Bannwarth and S. Grimme, J. Chem. Phys., 2019, 150, 154122.
     DOI: 10.1063/1.5090222
   * E. Caldeweyher, J.-M. Mewes, S. Ehlert and S. Grimme, Phys. Chem. Chem. Phys.
     2020, 22, 8499-8512. DOI: 10.1039/D0CP00502A
   
   for sTDA-xTB:
   * S. Grimme and C. Bannwarth, J. Chem. Phys., 2016, 145, 054103.
     DOI: 10.1063/1.4959605
   
   in the mass-spec context:
   * V. Asgeirsson, C. Bauer and S. Grimme, Chem. Sci., 2017, 8, 4879.
     DOI: 10.1039/c7sc00601b
   * J. Koopman and S. Grimme, ACS Omega 2019, 4, 12, 15120-15133.
     DOI: 10.1021/acsomega.9b02011
   
   for metadynamics refer to:
   * S. Grimme, J. Chem. Theory Comput., 2019, 155, 2847-2862
     DOI: 10.1021/acs.jctc.9b00143
   
   for SPH calculations refer to:
   * S. Spicher and S. Grimme, J. Chem. Theory Comput., 2021, 17, 1701-1714
     DOI: 10.1021/acs.jctc.0c01306
   
   with help from (in alphabetical order)
   P. Atkinson, C. Bannwarth, F. Bohle, G. Brandenburg, E. Caldeweyher
   M. Checinski, S. Dohm, S. Ehlert, S. Ehrlich, I. Gerasimov, C. Hölzer
   A. Katbashev, J. Koopman, C. Lavigne, S. Lehtola, F. März, M. Müller,
   F. Musil, H. Neugebauer, J. Pisarek, C. Plett, P. Pracht, F. Pultar,
   J. Seibert, P. Shushkov, S. Spicher, M. Stahn, M. Steiner, T. Strunk,
   J. Stückrath, T. Rose, and J. Unsleber
   
 * started run on 2024/06/05 at 19:58:07.678     

           -------------------------------------------------
          |                Calculation Setup                |
           -------------------------------------------------

          program call               : xtb struc.xyz --opt loose --input .xc1 --gfn2
          hostname                   : n-62-21-71
          coordinate file            : struc.xyz
          omp threads                :                     1

   ID    Z sym.   atoms
    1    6 C      1, 3, 5-7, 10, 11, 14
    2    7 N      2, 4, 9, 13
    3    8 O      8, 12
    4    1 H      15-25
constraining bond 23 24 to    3.2800000 Å, actual value:    1.7744882 Å

           -------------------------------------------------
          |                 G F N 2 - x T B                 |
           -------------------------------------------------

        Reference                      10.1021/acs.jctc.8b01176
      * Hamiltonian:
        H0-scaling (s, p, d)           1.850000    2.230000    2.230000
        zeta-weighting                 0.500000
      * Dispersion:
        s8                             2.700000
        a1                             0.520000
        a2                             5.000000
        s9                             5.000000
      * Repulsion:
        kExp                           1.500000    1.000000
        rExp                           1.000000
      * Coulomb:
        alpha                          2.000000
        third order                    shell-resolved
        anisotropic                    true
        a3                             3.000000
        a5                             4.000000
        cn-shift                       1.200000
        cn-exp                         4.000000
        max-rad                        5.000000


          ...................................................
          :                      SETUP                      :
          :.................................................:
          :  # basis functions                  67          :
          :  # atomic orbitals                  67          :
          :  # shells                           39          :
          :  # electrons                        74          :
          :  max. iterations                   250          :
          :  Hamiltonian                  GFN2-xTB          :
          :  restarted?                      false          :
          :  GBSA solvation                  false          :
          :  PC potential                    false          :
          :  electronic temp.         2500.0000000     K    :
          :  accuracy                    1.0000000          :
          :  -> integral cutoff          0.2500000E+02      :
          :  -> integral neglect         0.1000000E-07      :
          :  -> SCF convergence          0.1000000E-05 Eh   :
          :  -> wf. convergence          0.1000000E-03 e    :
          :  Broyden damping             0.4000000          :
          ...................................................

 iter      E             dE          RMSdq      gap      omega  full diag
   1    -42.5894761 -0.425895E+02  0.446E+00    3.52       0.0  T
   2    -42.7660496 -0.176573E+00  0.253E+00    3.37       1.0  T
   3    -42.7736311 -0.758158E-02  0.147E+00    3.27       1.0  T
   4    -42.7712089  0.242228E-02  0.522E-01    3.20       1.0  T
   5    -42.7763755 -0.516665E-02  0.115E-01    3.24       1.0  T
   6    -42.7764786 -0.103096E-03  0.599E-02    3.22       1.0  T
   7    -42.7764977 -0.190557E-04  0.265E-02    3.24       1.0  T
   8    -42.7765022 -0.458752E-05  0.826E-03    3.24       2.4  T
   9    -42.7765028 -0.511866E-06  0.435E-03    3.24       4.6  T
  10    -42.7765028 -0.741126E-07  0.110E-03    3.24      18.2  T
  11    -42.7765028 -0.615289E-08  0.514E-04    3.24      38.9  T
  12    -42.7765028 -0.131732E-08  0.162E-04    3.24     123.6  T

   *** convergence criteria satisfied after 12 iterations ***

         #    Occupation            Energy/Eh            Energy/eV
      -------------------------------------------------------------
         1        2.0000           -0.9218663             -25.0853
       ...           ...                  ...                  ...
        31        2.0000           -0.6245728             -16.9955
        32        2.0000           -0.6188521             -16.8398
        33        2.0000           -0.5946289             -16.1807
        34        1.9999           -0.5766508             -15.6915
        35        1.9996           -0.5616187             -15.2824
        36        1.9994           -0.5584494             -15.1962
        37        1.9993           -0.5575820             -15.1726 (HOMO)
        38        0.0017           -0.4385664             -11.9340 (LUMO)
        39        0.0000           -0.4059970             -11.0477
        40        0.0000           -0.3720875             -10.1250
        41                         -0.2883077              -7.8453
        42                         -0.2064013              -5.6165
       ...                                ...                  ...
        67                          0.5638960              15.3444
      -------------------------------------------------------------
                  HL-Gap            0.1190156 Eh            3.2386 eV
             Fermi-level           -0.4943591 Eh          -13.4522 eV

 SCC (total)                   0 d,  0 h,  0 min,  0.038 sec
 SCC setup                      ...        0 min,  0.000 sec (  0.765%)
 Dispersion                     ...        0 min,  0.000 sec (  0.988%)
 classical contributions        ...        0 min,  0.000 sec (  0.257%)
 integral evaluation            ...        0 min,  0.007 sec ( 17.875%)
 iterations                     ...        0 min,  0.018 sec ( 46.030%)
 molecular gradient             ...        0 min,  0.013 sec ( 33.632%)
 printout                       ...        0 min,  0.000 sec (  0.415%)

         :::::::::::::::::::::::::::::::::::::::::::::::::::::
         ::                     SUMMARY                     ::
         :::::::::::::::::::::::::::::::::::::::::::::::::::::
         :: total energy             -38.198257286333 Eh    ::
         :: gradient norm              4.023434074753 Eh/a0 ::
         :: HOMO-LUMO gap              3.238579380711 eV    ::
         ::.................................................::
         :: SCC energy               -42.776502838750 Eh    ::
         :: -> isotropic ES            0.143394945287 Eh    ::
         :: -> anisotropic ES         -0.005231236584 Eh    ::
         :: -> anisotropic XC          0.012162721064 Eh    ::
         :: -> dispersion             -0.022660936007 Eh    ::
         :: repulsion energy           0.531105277918 Eh    ::
         :: add. restraining           4.047026115489 Eh    ::
         :: total charge               1.000000000000 e     ::
         :::::::::::::::::::::::::::::::::::::::::::::::::::::

      ----------------------------------------------------------- 
     |                   =====================                   |
     |                        A N C O P T                        |
     |                   =====================                   |
     |               Approximate Normal Coordinate               |
     |                Rational Function Optimizer                |
      ----------------------------------------------------------- 

          ...................................................
          :                      SETUP                      :
          :.................................................:
          :   optimization level             loose          :
          :   max. optcycles                   200          :
          :   ANC micro-cycles                  20          :
          :   degrees of freedom                69          :
          :.................................................:
          :   RF solver                   davidson          :
          :   write xtbopt.log                true          :
          :   linear?                        false          :
          :   energy convergence         0.5000000E-04 Eh   :
          :   grad. convergence          0.4000000E-02 Eh/α :
          :   maxmium RF displ.          1.0000000          :
          :   Hlow (freq-cutoff)         0.1000000E-01      :
          :   Hmax (freq-cutoff)         5.0000000          :
          :   S6 in model hess.         20.0000000          :
          ...................................................

generating ANC from model Hessian ...
Using Lindh-Hessian (1995)
 Shifting diagonal of input Hessian by    1.6264611340269071     
 Lowest  eigenvalues of input Hessian
    0.010000    0.076076    0.000000    0.000000    0.000000    0.000000
    0.000000    0.000000    1.629434    1.630764    1.633139    1.635053
    1.637634    1.640087    1.643935    1.645735    1.650066    1.652872
 Highest eigenvalues
    3.775121    3.852451    3.910338    3.993661    4.043318    4.168960


........................................................................
.............................. CYCLE    1 ..............................
........................................................................

 iter      E             dE          RMSdq      gap      omega  full diag
   1    -42.7765028 -0.427765E+02  0.540E-05    3.24       0.0  T
   2    -42.7765028 -0.643041E-11  0.289E-05    3.24     692.1  T
   3    -42.7765028  0.881073E-12  0.138E-05    3.24    1448.6  T
     SCC iter.                  ...        0 min,  0.005 sec
     gradient                   ...        0 min,  0.013 sec
 * total energy  :   -38.1982573 Eh     change       -0.6633627E-10 Eh
   gradient norm :     4.0234341 Eh/α   predicted     0.0000000E+00 (-100.00%)
   displ. norm   :     0.6261301 α      lambda       -0.2513273E+01
   maximum displ.:     0.5981346 α      in ANC's #67, #51, #66, ...

........................................................................
.............................. CYCLE    2 ..............................
........................................................................

 iter      E             dE          RMSdq      gap      omega  full diag
   1    -42.7142890 -0.427143E+02  0.605E-01    3.23       0.0  T
   2    -42.7146225 -0.333450E-03  0.341E-01    3.22       1.0  T
   3    -42.7146183  0.416843E-05  0.895E-02    3.20       1.0  T
   4    -42.7146564 -0.381221E-04  0.175E-02    3.20       1.1  T
   5    -42.7146575 -0.111621E-05  0.923E-03    3.20       2.2  T
   6    -42.7146579 -0.358993E-06  0.342E-03    3.20       5.9  T
   7    -42.7146580 -0.106462E-06  0.131E-03    3.20      15.3  T
   8    -42.7146580 -0.538536E-08  0.462E-04    3.20      43.3  T
   9    -42.7146580 -0.409268E-08  0.116E-04    3.20     172.7  T
     SCC iter.                  ...        0 min,  0.013 sec
     gradient                   ...        0 min,  0.013 sec
 * total energy  :   -40.2887412 Eh     change       -0.2090484E+01 Eh
   gradient norm :     2.6797253 Eh/α   predicted    -0.1750635E+01 ( -16.26%)
   displ. norm   :     0.6775582 α      lambda       -0.1813573E+01
   maximum displ.:     0.6463806 α      in ANC's #67, #51, #66, ...

........................................................................
.............................. CYCLE    3 ..............................
........................................................................

 iter      E             dE          RMSdq      gap      omega  full diag
   1    -42.6337452 -0.426337E+02  0.511E-01    3.08       0.0  T
   2    -42.6341153 -0.370082E-03  0.270E-01    3.09       1.0  T
   3    -42.6340391  0.761580E-04  0.135E-01    3.03       1.0  T
   4    -42.6341876 -0.148483E-03  0.268E-02    3.05       1.0  T
   5    -42.6341952 -0.762653E-05  0.822E-03    3.04       2.4  T
   6    -42.6341955 -0.329174E-06  0.411E-03    3.05       4.9  T
   7    -42.6341956 -0.115559E-06  0.204E-03    3.04       9.8  T
   8    -42.6341957 -0.161219E-07  0.460E-04    3.05      43.4  T
   9    -42.6341957 -0.271410E-08  0.180E-04    3.05     111.3  T
     SCC iter.                  ...        0 min,  0.013 sec
     gradient                   ...        0 min,  0.013 sec
 * total energy  :   -41.6349035 Eh     change       -0.1346162E+01 Eh
   gradient norm :     1.3055548 Eh/α   predicted    -0.1323116E+01 (  -1.71%)
   displ. norm   :     0.4897489 α      lambda       -0.6387519E+00
   maximum displ.:     0.4677410 α      in ANC's #67, #51, #66, ...

........................................................................
.............................. CYCLE    4 ..............................
........................................................................

 iter      E             dE          RMSdq      gap      omega  full diag
   1    -42.5762418 -0.425762E+02  0.290E-01    2.85       0.0  T
   2    -42.5765839 -0.342112E-03  0.139E-01    2.84       1.0  T
   3    -42.5765914 -0.755733E-05  0.628E-02    2.81       1.0  T
   4    -42.5765884  0.301606E-05  0.282E-02    2.81       1.0  T
   5    -42.5766007 -0.122539E-04  0.723E-03    2.81       2.8  T
   6    -42.5766011 -0.439691E-06  0.324E-03    2.81       6.2  T
   7    -42.5766011 -0.229962E-07  0.186E-03    2.81      10.7  T
   8    -42.5766012 -0.286720E-07  0.856E-04    2.81      23.4  T
   9    -42.5766012 -0.110850E-07  0.262E-04    2.81      76.3  T
     SCC iter.                  ...        0 min,  0.012 sec
     gradient                   ...        0 min,  0.013 sec
 * total energy  :   -42.0353091 Eh     change       -0.4004057E+00 Eh
   gradient norm :     0.3340282 Eh/α   predicted    -0.3959796E+00 (  -1.11%)
   displ. norm   :     0.1907710 α      lambda       -0.5550009E-01
   maximum displ.:     0.1561690 α      in ANC's #67, #1, #41, ...

........................................................................
.............................. CYCLE    5 ..............................
........................................................................

 iter      E             dE          RMSdq      gap      omega  full diag
   1    -42.5588782 -0.425589E+02  0.153E-01    2.70       0.0  T
   2    -42.5589703 -0.921363E-04  0.905E-02    2.67       1.0  T
   3    -42.5589630  0.739418E-05  0.549E-02    2.69       1.0  T
   4    -42.5590276 -0.646784E-04  0.246E-02    2.66       1.0  T
   5    -42.5590325 -0.484589E-05  0.421E-03    2.67       4.8  T
   6    -42.5590326 -0.138406E-06  0.194E-03    2.67      10.3  T
   7    -42.5590326 -0.322528E-07  0.911E-04    2.67      21.9  T
   8    -42.5590327 -0.386491E-08  0.342E-04    2.67      58.4  T
     SCC iter.                  ...        0 min,  0.011 sec
     gradient                   ...        0 min,  0.013 sec
 * total energy  :   -42.0644122 Eh     change       -0.2910307E-01 Eh
   gradient norm :     0.0323837 Eh/α   predicted    -0.2876135E-01 (  -1.17%)
   displ. norm   :     0.3869416 α      lambda       -0.2144671E-02
   maximum displ.:     0.3861910 α      in ANC's #1, #2, #41, ...

........................................................................
.............................. CYCLE    6 ..............................
........................................................................

 iter      E             dE          RMSdq      gap      omega  full diag
   1    -42.5559204 -0.425559E+02  0.398E-01    2.58       0.0  T
   2    -42.5559855 -0.650748E-04  0.295E-01    2.43       1.0  T
   3    -42.5568673 -0.881869E-03  0.168E-01    2.55       1.0  T
   4    -42.5571552 -0.287883E-03  0.288E-02    2.49       1.0  T
   5    -42.5571578 -0.253369E-05  0.784E-03    2.50       2.6  T
   6    -42.5571585 -0.729975E-06  0.343E-03    2.50       5.8  T
   7    -42.5571586 -0.729610E-07  0.135E-03    2.50      14.8  T
   8    -42.5571586 -0.563593E-08  0.405E-04    2.50      49.4  T
   9    -42.5571586 -0.215019E-08  0.150E-04    2.50     133.0  T
     SCC iter.                  ...        0 min,  0.012 sec
     gradient                   ...        0 min,  0.013 sec
 * total energy  :   -42.0652373 Eh     change       -0.8250470E-03 Eh
   gradient norm :     0.0624772 Eh/α   predicted    -0.1368772E-02 (  65.90%)
   displ. norm   :     0.0997005 α      lambda       -0.1552495E-02
   maximum displ.:     0.0956303 α      in ANC's #1, #2, #67, ...

........................................................................
.............................. CYCLE    7 ..............................
........................................................................

 iter      E             dE          RMSdq      gap      omega  full diag
   1    -42.5592652 -0.425593E+02  0.107E-01    2.52       0.0  T
   2    -42.5592837 -0.185569E-04  0.868E-02    2.56       1.0  T
   3    -42.5593843 -0.100528E-03  0.433E-02    2.53       1.0  T
   4    -42.5593940 -0.972523E-05  0.111E-02    2.54       1.8  T
   5    -42.5593947 -0.728280E-06  0.208E-03    2.54       9.6  T
   6    -42.5593948 -0.480660E-07  0.101E-03    2.54      19.9  T
   7    -42.5593948 -0.261817E-08  0.375E-04    2.54      53.3  T
   8    -42.5593948 -0.857462E-09  0.147E-04    2.54     136.5  T
     SCC iter.                  ...        0 min,  0.011 sec
     gradient                   ...        0 min,  0.013 sec
 * total energy  :   -42.0661937 Eh     change       -0.9564267E-03 Eh
   gradient norm :     0.0291570 Eh/α   predicted    -0.7839975E-03 ( -18.03%)
   displ. norm   :     0.1094278 α      lambda       -0.1309228E-02
   maximum displ.:     0.0833058 α      in ANC's #1, #2, #67, ...

........................................................................
.............................. CYCLE    8 ..............................
........................................................................

 iter      E             dE          RMSdq      gap      omega  full diag
   1    -42.5609113 -0.425609E+02  0.115E-01    2.50       0.0  T
   2    -42.5609336 -0.223019E-04  0.653E-02    2.46       1.0  T
   3    -42.5609233  0.102461E-04  0.499E-02    2.49       1.0  T
   4    -42.5609684 -0.450441E-04  0.991E-03    2.47       2.0  T
   5    -42.5609685 -0.109670E-06  0.301E-03    2.47       6.7  T
   6    -42.5609686 -0.109050E-06  0.108E-03    2.47      18.5  T
   7    -42.5609686 -0.643131E-08  0.455E-04    2.47      43.9  T
   8    -42.5609686 -0.169992E-08  0.135E-04    2.47     148.3  T
     SCC iter.                  ...        0 min,  0.011 sec
     gradient                   ...        0 min,  0.013 sec
 * total energy  :   -42.0672767 Eh     change       -0.1082976E-02 Eh
   gradient norm :     0.0225018 Eh/α   predicted    -0.6690034E-03 ( -38.23%)
   displ. norm   :     0.2969729 α      lambda       -0.2381753E-02
   maximum displ.:     0.2425397 α      in ANC's #1, #2, #67, ...

........................................................................
.............................. CYCLE    9 ..............................
........................................................................

 iter      E             dE          RMSdq      gap      omega  full diag
   1    -42.5612517 -0.425613E+02  0.311E-01    2.34       0.0  T
   2    -42.5614537 -0.202051E-03  0.193E-01    2.23       1.0  T
   3    -42.5616357 -0.181974E-03  0.125E-01    2.33       1.0  T
   4    -42.5618777 -0.242012E-03  0.270E-02    2.27       1.0  T
   5    -42.5618785 -0.765178E-06  0.759E-03    2.28       2.6  T
   6    -42.5618792 -0.749750E-06  0.288E-03    2.28       6.9  T
   7    -42.5618793 -0.577255E-07  0.139E-03    2.28      14.3  T
   8    -42.5618793 -0.979619E-08  0.429E-04    2.28      46.6  T
   9    -42.5618793 -0.232998E-08  0.130E-04    2.28     153.8  T
     SCC iter.                  ...        0 min,  0.012 sec
     gradient                   ...        0 min,  0.013 sec
 * total energy  :   -42.0689183 Eh     change       -0.1641591E-02 Eh
   gradient norm :     0.0278714 Eh/α   predicted    -0.1296241E-02 ( -21.04%)
   displ. norm   :     0.1678832 α      lambda       -0.1012084E-02
   maximum displ.:     0.1235122 α      in ANC's #1, #2, #67, ...

........................................................................
.............................. CYCLE   10 ..............................
........................................................................

 iter      E             dE          RMSdq      gap      omega  full diag
   1    -42.5626001 -0.425626E+02  0.174E-01    2.19       0.0  T
   2    -42.5626958 -0.957352E-04  0.111E-01    2.13       1.0  T
   3    -42.5628176 -0.121785E-03  0.643E-02    2.19       1.0  T
   4    -42.5628704 -0.528169E-04  0.164E-02    2.16       1.2  T
   5    -42.5628710 -0.601942E-06  0.505E-03    2.17       4.0  T
   6    -42.5628713 -0.352163E-06  0.176E-03    2.17      11.4  T
   7    -42.5628714 -0.280770E-07  0.814E-04    2.17      24.6  T
   8    -42.5628714 -0.234934E-08  0.342E-04    2.17      58.4  T
     SCC iter.                  ...        0 min,  0.011 sec
     gradient                   ...        0 min,  0.013 sec
 * total energy  :   -42.0696843 Eh     change       -0.7660523E-03 Eh
   gradient norm :     0.0370402 Eh/α   predicted    -0.5203374E-03 ( -32.08%)
   displ. norm   :     0.1989906 α      lambda       -0.1899007E-02
   maximum displ.:     0.1044506 α      in ANC's #1, #2, #15, ...

........................................................................
.............................. CYCLE   11 ..............................
........................................................................

 iter      E             dE          RMSdq      gap      omega  full diag
   1    -42.5659213 -0.425659E+02  0.200E-01    2.05       0.0  T
   2    -42.5661047 -0.183436E-03  0.126E-01    1.97       1.0  T
   3    -42.5663176 -0.212923E-03  0.709E-02    2.05       1.0  T
   4    -42.5663670 -0.494339E-04  0.200E-02    2.02       1.0  T
   5    -42.5663687 -0.170432E-05  0.723E-03    2.03       2.8  T
   6    -42.5663695 -0.754133E-06  0.219E-03    2.02       9.1  T
   7    -42.5663696 -0.498924E-07  0.888E-04    2.02      22.5  T
   8    -42.5663696 -0.240222E-08  0.463E-04    2.02      43.2  T
     SCC iter.                  ...        0 min,  0.011 sec
     gradient                   ...        0 min,  0.013 sec
 * total energy  :   -42.0711629 Eh     change       -0.1478560E-02 Eh
   gradient norm :     0.0460217 Eh/α   predicted    -0.9874170E-03 ( -33.22%)
   displ. norm   :     0.3764968 α      lambda       -0.3401606E-02
   maximum displ.:     0.2418273 α      in ANC's #1, #2, #15, ...

........................................................................
.............................. CYCLE   12 ..............................
........................................................................

 iter      E             dE          RMSdq      gap      omega  full diag
   1    -42.5674831 -0.425675E+02  0.429E-01    1.79       0.0  T
   2    -42.5688381 -0.135505E-02  0.275E-01    1.60       1.0  T
   3    -42.5699817 -0.114362E-02  0.145E-01    1.80       1.0  T
   4    -42.5701821 -0.200330E-03  0.548E-02    1.70       1.0  T
   5    -42.5702192 -0.371478E-04  0.196E-02    1.74       1.0  T
   6    -42.5702236 -0.441533E-05  0.519E-03    1.74       3.9  T
   7    -42.5702239 -0.239271E-06  0.159E-03    1.74      12.6  T
   8    -42.5702239 -0.135878E-07  0.905E-04    1.74      22.1  T
   9    -42.5702239 -0.265643E-08  0.255E-04    1.74      78.3  T
     SCC iter.                  ...        0 min,  0.012 sec
     gradient                   ...        0 min,  0.013 sec
 * total energy  :   -42.0741180 Eh     change       -0.2955169E-02 Eh
   gradient norm :     0.0578944 Eh/α   predicted    -0.1941917E-02 ( -34.29%)
   displ. norm   :     0.6464674 α      lambda       -0.9531760E-02
   maximum displ.:     0.2937142 α      in ANC's #1, #15, #14, ...

........................................................................
.............................. CYCLE   13 ..............................
........................................................................

 iter      E             dE          RMSdq      gap      omega  full diag
   1    -42.5783125 -0.425783E+02  0.728E-01    1.36       0.0  T
   2    -42.5815530 -0.324049E-02  0.443E-01    1.21       1.0  T
   3    -42.5807871  0.765941E-03  0.324E-01    1.56       1.0  T
   4    -42.5824428 -0.165572E-02  0.160E-01    1.24       1.0  T
   5    -42.5831302 -0.687441E-03  0.620E-02    1.38       1.0  T
   6    -42.5831984 -0.681309E-04  0.184E-02    1.35       1.1  T
   7    -42.5831992 -0.817457E-06  0.560E-03    1.35       3.6  T
   8    -42.5831997 -0.566997E-06  0.277E-03    1.35       7.2  T
   9    -42.5831998 -0.373804E-07  0.150E-03    1.35      13.4  T
  10    -42.5831998 -0.157935E-07  0.460E-04    1.35      43.5  T
  11    -42.5831998 -0.432945E-08  0.166E-04    1.35     120.4  T
     SCC iter.                  ...        0 min,  0.015 sec
     gradient                   ...        0 min,  0.013 sec
 * total energy  :   -42.0831569 Eh     change       -0.9038814E-02 Eh
   gradient norm :     0.1055039 Eh/α   predicted    -0.6757727E-02 ( -25.24%)
   displ. norm   :     0.7814667 α      lambda       -0.1656662E-01
   maximum displ.:     0.3167056 α      in ANC's #1, #15, #14, ...

........................................................................
.............................. CYCLE   14 ..............................
........................................................................

 iter      E             dE          RMSdq      gap      omega  full diag
   1    -42.6027599 -0.426028E+02  0.806E-01    1.05       0.0  T
   2    -42.6007584  0.200149E-02  0.550E-01    1.38       1.0  T
   3    -42.5770036  0.237548E-01  0.878E-01    0.76       1.0  T
   4    -42.6036766 -0.266730E-01  0.163E-01    1.27       1.0  T
   5    -42.6044372 -0.760532E-03  0.617E-02    1.19       1.0  T
   6    -42.6045256 -0.884638E-04  0.240E-02    1.17       1.0  T
   7    -42.6045257 -0.730495E-07  0.109E-02    1.16       1.8  T
   8    -42.6045278 -0.209908E-05  0.504E-03    1.16       4.0  T
   9    -42.6045284 -0.540400E-06  0.190E-03    1.16      10.5  T
  10    -42.6045284 -0.337264E-07  0.485E-04    1.16      41.2  T
  11    -42.6045284 -0.838945E-09  0.213E-04    1.16      93.7  T
     SCC iter.                  ...        0 min,  0.016 sec
     gradient                   ...        0 min,  0.013 sec
 * total energy  :   -42.0729100 Eh     change        0.1024687E-01 Eh
   gradient norm :     0.1951064 Eh/α   predicted    -0.1334126E-01 (-230.20%)
   displ. norm   :     0.5093050 α      lambda       -0.5240358E-01
   maximum displ.:     0.3474359 α      in ANC's #1, #15, #14, ...

........................................................................
.............................. CYCLE   15 ..............................
........................................................................

 iter      E             dE          RMSdq      gap      omega  full diag
   1    -42.5994552 -0.425995E+02  0.529E-01    1.32       0.0  T
   2    -42.5968160  0.263918E-02  0.408E-01    1.01       1.0  T
   3    -42.5972167 -0.400702E-03  0.374E-01    1.46       1.0  T
   4    -42.6007918 -0.357507E-02  0.877E-02    1.22       1.0  T
   5    -42.6009026 -0.110841E-03  0.324E-02    1.22       1.0  T
   6    -42.6009212 -0.185581E-04  0.131E-02    1.20       1.5  T
   7    -42.6009220 -0.806379E-06  0.572E-03    1.20       3.5  T
   8    -42.6009225 -0.524777E-06  0.268E-03    1.20       7.5  T
   9    -42.6009225 -0.435575E-07  0.743E-04    1.20      26.9  T
  10    -42.6009225 -0.793126E-08  0.253E-04    1.20      78.9  T
     SCC iter.                  ...        0 min,  0.014 sec
     gradient                   ...        0 min,  0.013 sec
 * total energy  :   -42.0919423 Eh     change       -0.1903237E-01 Eh
   gradient norm :     0.1757465 Eh/α   predicted    -0.3300023E-01 (  73.39%)
   displ. norm   :     0.5062441 α      lambda       -0.1335981E-01
   maximum displ.:     0.3534265 α      in ANC's #2, #1, #14, ...

........................................................................
.............................. CYCLE   16 ..............................
........................................................................

 iter      E             dE          RMSdq      gap      omega  full diag
   1    -42.5784625 -0.425785E+02  0.430E-01    1.26       0.0  T
   2    -42.5775277  0.934776E-03  0.322E-01    1.50       1.0  T
   3    -42.5787772 -0.124948E-02  0.231E-01    1.20       1.0  T
   4    -42.5797965 -0.101930E-02  0.102E-01    1.38       1.0  T
   5    -42.5800853 -0.288865E-03  0.220E-02    1.32       1.0  T
   6    -42.5800916 -0.623366E-05  0.967E-03    1.32       2.1  T
   7    -42.5800919 -0.344376E-06  0.488E-03    1.32       4.1  T
   8    -42.5800924 -0.491430E-06  0.129E-03    1.32      15.5  T
   9    -42.5800924 -0.102918E-07  0.635E-04    1.32      31.5  T
  10    -42.5800924 -0.306774E-08  0.129E-04    1.32     155.0  T
     SCC iter.                  ...        0 min,  0.014 sec
     gradient                   ...        0 min,  0.013 sec
 * total energy  :   -42.0710361 Eh     change        0.2090622E-01 Eh
   gradient norm :     0.2571412 Eh/α   predicted    -0.8391957E-02 (-140.14%)
   displ. norm   :     0.4385934 α      lambda       -0.5247588E-01
   maximum displ.:     0.3290505 α      in ANC's #2, #1, #52, ...

........................................................................
.............................. CYCLE   17 ..............................
........................................................................

 iter      E             dE          RMSdq      gap      omega  full diag
   1    -42.6010850 -0.426011E+02  0.427E-01    1.23       0.0  T
   2    -42.5997874  0.129762E-02  0.351E-01    1.03       1.0  T
   3    -42.6006891 -0.901731E-03  0.257E-01    1.35       1.0  T
   4    -42.6023965 -0.170741E-02  0.111E-01    1.13       1.0  T
   5    -42.6026154 -0.218884E-03  0.317E-02    1.18       1.0  T
   6    -42.6026295 -0.141133E-04  0.138E-02    1.17       1.4  T
   7    -42.6026305 -0.978124E-06  0.730E-03    1.17       2.7  T
   8    -42.6026317 -0.119023E-05  0.193E-03    1.18      10.4  T
   9    -42.6026317 -0.142273E-07  0.860E-04    1.18      23.3  T
  10    -42.6026317 -0.246335E-08  0.321E-04    1.18      62.4  T
     SCC iter.                  ...        0 min,  0.014 sec
     gradient                   ...        0 min,  0.013 sec
 * total energy  :   -42.1011916 Eh     change       -0.3015544E-01 Eh
   gradient norm :     0.1177067 Eh/α   predicted    -0.3128729E-01 (   3.75%)
   displ. norm   :     0.1667428 α      lambda       -0.9133239E-02
   maximum displ.:     0.0929619 α      in ANC's #2, #1, #52, ...

........................................................................
.............................. CYCLE   18 ..............................
........................................................................

 iter      E             dE          RMSdq      gap      omega  full diag
   1    -42.6128718 -0.426129E+02  0.208E-01    1.07       0.0  T
   2    -42.6127099  0.161869E-03  0.139E-01    1.17       1.0  T
   3    -42.6119430  0.766930E-03  0.187E-01    1.00       1.0  T
   4    -42.6129916 -0.104865E-02  0.400E-02    1.12       1.0  T
   5    -42.6130350 -0.433512E-04  0.159E-02    1.10       1.3  T
   6    -42.6130401 -0.510927E-05  0.601E-03    1.10       3.3  T
   7    -42.6130403 -0.190105E-06  0.201E-03    1.10      10.0  T
   8    -42.6130404 -0.618422E-07  0.811E-04    1.11      24.7  T
   9    -42.6130404 -0.316886E-08  0.348E-04    1.11      57.4  T
     SCC iter.                  ...        0 min,  0.013 sec
     gradient                   ...        0 min,  0.013 sec
 * total energy  :   -42.1088683 Eh     change       -0.7676725E-02 Eh
   gradient norm :     0.1191303 Eh/α   predicted    -0.4693903E-02 ( -38.86%)
   displ. norm   :     0.3387517 α      lambda       -0.1866311E-01
   maximum displ.:     0.1800416 α      in ANC's #2, #52, #1, ...

........................................................................
.............................. CYCLE   19 ..............................
........................................................................

 iter      E             dE          RMSdq      gap      omega  full diag
   1    -42.6285034 -0.426285E+02  0.532E-01    0.81       0.0  T
   2    -42.6154799  0.130235E-01  0.724E-01    1.48       1.0  T
   3    -42.6322232 -0.167434E-01  0.221E-01    0.91       1.0  T
   4    -42.6326179 -0.394627E-03  0.805E-02    1.00       1.0  T
   5    -42.6327374 -0.119581E-03  0.295E-02    0.96       1.0  T
   6    -42.6327588 -0.213161E-04  0.109E-02    0.98       1.8  T
   7    -42.6327593 -0.540536E-06  0.545E-03    0.98       3.7  T
   8    -42.6327599 -0.629890E-06  0.224E-03    0.97       8.9  T
   9    -42.6327600 -0.456723E-07  0.107E-03    0.97      18.7  T
  10    -42.6327600 -0.136418E-07  0.358E-04    0.97      55.9  T
  11    -42.6327600 -0.750028E-09  0.178E-04    0.97     112.6  T
     SCC iter.                  ...        0 min,  0.015 sec
     gradient                   ...        0 min,  0.013 sec
 * total energy  :   -42.1195122 Eh     change       -0.1064389E-01 Eh
   gradient norm :     0.1107204 Eh/α   predicted    -0.1040265E-01 (  -2.27%)
   displ. norm   :     0.1430745 α      lambda       -0.8238312E-02
   maximum displ.:     0.0659334 α      in ANC's #1, #67, #2, ...

........................................................................
.............................. CYCLE   20 ..............................
........................................................................

 iter      E             dE          RMSdq      gap      omega  full diag
   1    -42.6313642 -0.426314E+02  0.206E-01    0.87       0.0  T
   2    -42.6273718  0.399246E-02  0.382E-01    1.15       1.0  T
   3    -42.6321222 -0.475046E-02  0.815E-02    0.92       1.0  T
   4    -42.6320714  0.508081E-04  0.580E-02    0.96       1.0  T
   5    -42.6321503 -0.788207E-04  0.199E-02    0.94       1.0  T
   6    -42.6321553 -0.505500E-05  0.804E-03    0.94       2.5  T
   7    -42.6321555 -0.144476E-06  0.554E-03    0.94       3.6  T
   8    -42.6321562 -0.738611E-06  0.147E-03    0.94      13.6  T
   9    -42.6321562 -0.144410E-07  0.478E-04    0.94      41.9  T
  10    -42.6321562 -0.292657E-08  0.171E-04    0.94     116.8  T
     SCC iter.                  ...        0 min,  0.014 sec
     gradient                   ...        0 min,  0.013 sec
 * total energy  :   -42.1259655 Eh     change       -0.6453352E-02 Eh
   gradient norm :     0.0864203 Eh/α   predicted    -0.4203497E-02 ( -34.86%)
   displ. norm   :     0.2329715 α      lambda       -0.1645216E-01
   maximum displ.:     0.1025153 α      in ANC's #52, #1, #51, ...
 * RMSD in coord.:     0.5541211 α      energy gain  -0.3927708E+01 Eh

generating ANC from model Hessian ...
Using Lindh-Hessian (1995)
 Shifting diagonal of input Hessian by    1.3151999246470709E-002
 Lowest  eigenvalues of input Hessian
    0.010000    0.000000    0.000000    0.000000    0.000000    0.000000
    0.000000    0.015854    0.017396    0.020732    0.022453    0.023293
    0.024376    0.025721    0.029899    0.034318    0.035740    0.041567
 Highest eigenvalues
    2.142996    2.188688    2.257022    2.363095    2.404219    2.492552


........................................................................
.............................. CYCLE   21 ..............................
........................................................................

 iter      E             dE          RMSdq      gap      omega  full diag
   1    -42.6294993 -0.426295E+02  0.636E-01    0.76       0.0  T
   2    -42.6008033  0.286960E-01  0.113E+00    1.62       1.0  T
   3    -42.6392127 -0.384094E-01  0.226E-01    0.93       1.0  T
   4    -42.6389485  0.264261E-03  0.178E-01    0.98       1.0  T
   5    -42.6395572 -0.608761E-03  0.597E-02    0.89       1.0  T
   6    -42.6395979 -0.406171E-04  0.293E-02    0.92       1.0  T
   7    -42.6396131 -0.152299E-04  0.135E-02    0.92       1.5  T
   8    -42.6396136 -0.505109E-06  0.103E-02    0.91       1.9  T
   9    -42.6396166 -0.298279E-05  0.442E-03    0.91       4.5  T
  10    -42.6396170 -0.461304E-06  0.183E-03    0.91      10.9  T
  11    -42.6396171 -0.913477E-07  0.257E-04    0.91      77.9  T
  12    -42.6396171 -0.702769E-09  0.921E-05    0.91     217.1  T
     SCC iter.                  ...        0 min,  0.016 sec
     gradient                   ...        0 min,  0.013 sec
 * total energy  :   -42.1361032 Eh     change       -0.1013765E-01 Eh
   gradient norm :     0.0730895 Eh/α   predicted     0.0000000E+00 (-100.00%)
   displ. norm   :     0.3540828 α      lambda       -0.1136763E-01
   maximum displ.:     0.1229147 α      in ANC's #4, #6, #7, ...

........................................................................
.............................. CYCLE   22 ..............................
........................................................................

 iter      E             dE          RMSdq      gap      omega  full diag
   1    -42.6504605 -0.426505E+02  0.346E-01    0.84       0.0  T
   2    -42.6434028  0.705771E-02  0.511E-01    1.16       1.0  T
   3    -42.6509320 -0.752916E-02  0.212E-01    0.85       1.0  T
   4    -42.6517507 -0.818724E-03  0.603E-02    0.92       1.0  T
   5    -42.6517846 -0.339478E-04  0.299E-02    0.92       1.0  T
   6    -42.6518024 -0.177673E-04  0.146E-02    0.92       1.4  T
   7    -42.6518056 -0.325974E-05  0.617E-03    0.91       3.2  T
   8    -42.6518062 -0.559937E-06  0.216E-03    0.91       9.2  T
   9    -42.6518063 -0.798828E-07  0.776E-04    0.91      25.8  T
  10    -42.6518063 -0.645654E-08  0.254E-04    0.91      78.7  T
     SCC iter.                  ...        0 min,  0.014 sec
     gradient                   ...        0 min,  0.013 sec
 * total energy  :   -42.1448615 Eh     change       -0.8758323E-02 Eh
   gradient norm :     0.0386467 Eh/α   predicted    -0.6404328E-02 ( -26.88%)
   displ. norm   :     0.5017977 α      lambda       -0.8960480E-02
   maximum displ.:     0.2272302 α      in ANC's #6, #5, #1, ...

........................................................................
.............................. CYCLE   23 ..............................
........................................................................

 iter      E             dE          RMSdq      gap      omega  full diag
   1    -42.6560245 -0.426560E+02  0.527E-01    0.82       0.0  T
   2    -42.6361188  0.199057E-01  0.891E-01    1.45       1.0  T
   3    -42.6614447 -0.253259E-01  0.169E-01    0.92       1.0  T
   4    -42.6614422  0.251686E-05  0.846E-02    0.95       1.0  T
   5    -42.6615280 -0.858516E-04  0.347E-02    0.94       1.0  T
   6    -42.6615556 -0.275739E-04  0.165E-02    0.96       1.2  T
   7    -42.6615609 -0.532521E-05  0.678E-03    0.95       2.9  T
   8    -42.6615615 -0.513033E-06  0.211E-03    0.95       9.5  T
   9    -42.6615615 -0.659910E-07  0.102E-03    0.95      19.6  T
  10    -42.6615615 -0.159797E-07  0.367E-04    0.95      54.5  T
  11    -42.6615615 -0.196825E-08  0.109E-04    0.95     182.9  T
     SCC iter.                  ...        0 min,  0.015 sec
     gradient                   ...        0 min,  0.013 sec
 * total energy  :   -42.1507780 Eh     change       -0.5916505E-02 Eh
   gradient norm :     0.0368509 Eh/α   predicted    -0.5608370E-02 (  -5.21%)
   displ. norm   :     0.3713626 α      lambda       -0.3281991E-02
   maximum displ.:     0.2222593 α      in ANC's #6, #5, #4, ...

........................................................................
.............................. CYCLE   24 ..............................
........................................................................

 iter      E             dE          RMSdq      gap      omega  full diag
   1    -42.6613884 -0.426614E+02  0.371E-01    0.89       0.0  T
   2    -42.6498152  0.115732E-01  0.662E-01    1.30       1.0  T
   3    -42.6640181 -0.142029E-01  0.123E-01    0.94       1.0  T
   4    -42.6641153 -0.972661E-04  0.792E-02    0.99       1.0  T
   5    -42.6642277 -0.112315E-03  0.185E-02    0.97       1.1  T
   6    -42.6642362 -0.848685E-05  0.666E-03    0.98       3.0  T
   7    -42.6642366 -0.460619E-06  0.370E-03    0.97       5.4  T
   8    -42.6642369 -0.242688E-06  0.102E-03    0.97      19.5  T
   9    -42.6642369 -0.146007E-07  0.565E-04    0.97      35.4  T
  10    -42.6642369 -0.683116E-08  0.212E-04    0.97      94.2  T
     SCC iter.                  ...        0 min,  0.014 sec
     gradient                   ...        0 min,  0.013 sec
 * total energy  :   -42.1531461 Eh     change       -0.2368084E-02 Eh
   gradient norm :     0.0383325 Eh/α   predicted    -0.1867310E-02 ( -21.15%)
   displ. norm   :     0.3913736 α      lambda       -0.3288445E-02
   maximum displ.:     0.1980799 α      in ANC's #6, #1, #5, ...

........................................................................
.............................. CYCLE   25 ..............................
........................................................................

 iter      E             dE          RMSdq      gap      omega  full diag
   1    -42.6658125 -0.426658E+02  0.334E-01    0.95       0.0  T
   2    -42.6581184  0.769416E-02  0.566E-01    1.25       1.0  T
   3    -42.6677367 -0.961832E-02  0.120E-01    0.97       1.0  T
   4    -42.6678558 -0.119121E-03  0.861E-02    1.04       1.0  T
   5    -42.6680066 -0.150827E-03  0.120E-02    1.01       1.7  T
   6    -42.6680090 -0.233940E-05  0.508E-03    1.01       3.9  T
   7    -42.6680092 -0.264510E-06  0.248E-03    1.01       8.1  T
   8    -42.6680093 -0.996384E-07  0.781E-04    1.01      25.6  T
   9    -42.6680093 -0.471627E-08  0.320E-04    1.01      62.4  T
     SCC iter.                  ...        0 min,  0.013 sec
     gradient                   ...        0 min,  0.013 sec
 * total energy  :   -42.1555535 Eh     change       -0.2407369E-02 Eh
   gradient norm :     0.0371505 Eh/α   predicted    -0.1896079E-02 ( -21.24%)
   displ. norm   :     0.3026468 α      lambda       -0.2965554E-02
   maximum displ.:     0.1715835 α      in ANC's #6, #5, #4, ...

........................................................................
.............................. CYCLE   26 ..............................
........................................................................

 iter      E             dE          RMSdq      gap      omega  full diag
   1    -42.6726077 -0.426726E+02  0.309E-01    0.99       0.0  T
   2    -42.6675031  0.510459E-02  0.471E-01    1.21       1.0  T
   3    -42.6737681 -0.626498E-02  0.140E-01    0.98       1.0  T
   4    -42.6740462 -0.278122E-03  0.800E-02    1.07       1.0  T
   5    -42.6741783 -0.132098E-03  0.125E-02    1.04       1.6  T
   6    -42.6741808 -0.247605E-05  0.522E-03    1.04       3.8  T
   7    -42.6741810 -0.212033E-06  0.257E-03    1.04       7.8  T
   8    -42.6741811 -0.106509E-06  0.876E-04    1.04      22.8  T
   9    -42.6741811 -0.563439E-08  0.398E-04    1.04      50.3  T
     SCC iter.                  ...        0 min,  0.012 sec
     gradient                   ...        0 min,  0.013 sec
 * total energy  :   -42.1570732 Eh     change       -0.1519714E-02 Eh
   gradient norm :     0.0288597 Eh/α   predicted    -0.1618621E-02 (   6.51%)
   displ. norm   :     0.5517393 α      lambda       -0.3420917E-02
   maximum displ.:     0.4052550 α      in ANC's #1, #5, #6, ...

........................................................................
.............................. CYCLE   27 ..............................
........................................................................

 iter      E             dE          RMSdq      gap      omega  full diag
   1    -42.6640423 -0.426640E+02  0.488E-01    1.04       0.0  T
   2    -42.6567910  0.725130E-02  0.568E-01    1.26       1.0  T
   3    -42.6649194 -0.812838E-02  0.314E-01    0.98       1.0  T
   4    -42.6663515 -0.143209E-02  0.143E-01    1.12       1.0  T
   5    -42.6667868 -0.435269E-03  0.155E-02    1.07       1.3  T
   6    -42.6667901 -0.332273E-05  0.694E-03    1.07       2.9  T
   7    -42.6667907 -0.560805E-06  0.357E-03    1.07       5.6  T
   8    -42.6667908 -0.104176E-06  0.179E-03    1.07      11.2  T
   9    -42.6667908 -0.463922E-07  0.496E-04    1.07      40.3  T
  10    -42.6667908 -0.301154E-08  0.221E-04    1.07      90.7  T
     SCC iter.                  ...        0 min,  0.014 sec
     gradient                   ...        0 min,  0.013 sec
 * total energy  :   -42.1564360 Eh     change        0.6371363E-03 Eh
   gradient norm :     0.0814897 Eh/α   predicted    -0.2231153E-02 (-450.18%)
   displ. norm   :     0.2624421 α      lambda       -0.5491285E-02
   maximum displ.:     0.1504167 α      in ANC's #6, #1, #5, ...

........................................................................
.............................. CYCLE   28 ..............................
........................................................................

 iter      E             dE          RMSdq      gap      omega  full diag
   1    -42.6780608 -0.426781E+02  0.217E-01    1.09       0.0  T
   2    -42.6766296  0.143123E-02  0.231E-01    0.99       1.0  T
   3    -42.6777670 -0.113735E-02  0.185E-01    1.12       1.0  T
   4    -42.6783355 -0.568483E-03  0.615E-02    1.05       1.0  T
   5    -42.6784061 -0.706957E-04  0.192E-02    1.07       1.0  T
   6    -42.6784117 -0.558291E-05  0.103E-02    1.07       2.0  T
   7    -42.6784134 -0.165262E-05  0.402E-03    1.07       5.0  T
   8    -42.6784137 -0.269979E-06  0.640E-04    1.06      31.2  T
   9    -42.6784137 -0.345349E-08  0.288E-04    1.06      69.5  T
     SCC iter.                  ...        0 min,  0.012 sec
     gradient                   ...        0 min,  0.013 sec
 * total energy  :   -42.1586504 Eh     change       -0.2214383E-02 Eh
   gradient norm :     0.0216424 Eh/α   predicted    -0.2934741E-02 (  32.53%)
   displ. norm   :     0.1877143 α      lambda       -0.1715107E-02
   maximum displ.:     0.1274856 α      in ANC's #5, #6, #7, ...

........................................................................
.............................. CYCLE   29 ..............................
........................................................................

 iter      E             dE          RMSdq      gap      omega  full diag
   1    -42.6773439 -0.426773E+02  0.186E-01    1.04       0.0  T
   2    -42.6760425  0.130139E-02  0.241E-01    1.16       1.0  T
   3    -42.6775546 -0.151213E-02  0.105E-01    1.04       1.0  T
   4    -42.6776799 -0.125253E-03  0.404E-02    1.08       1.0  T
   5    -42.6777173 -0.374250E-04  0.970E-03    1.06       2.1  T
   6    -42.6777202 -0.286017E-05  0.262E-03    1.07       7.6  T
   7    -42.6777202 -0.462221E-07  0.164E-03    1.07      12.2  T
   8    -42.6777203 -0.296512E-07  0.492E-04    1.07      40.7  T
   9    -42.6777203 -0.356064E-08  0.175E-04    1.07     114.6  T
     SCC iter.                  ...        0 min,  0.012 sec
     gradient                   ...        0 min,  0.013 sec
 * total energy  :   -42.1585009 Eh     change        0.1494885E-03 Eh
   gradient norm :     0.0429665 Eh/α   predicted    -0.8877734E-03 (-693.87%)
   displ. norm   :     0.1519367 α      lambda       -0.1822770E-02
   maximum displ.:     0.1272108 α      in ANC's #1, #13, #6, ...

........................................................................
.............................. CYCLE   30 ..............................
........................................................................

 iter      E             dE          RMSdq      gap      omega  full diag
   1    -42.6788268 -0.426788E+02  0.824E-02    1.08       0.0  T
   2    -42.6788084  0.183664E-04  0.584E-02    1.07       1.0  T
   3    -42.6788266 -0.181862E-04  0.478E-02    1.07       1.0  T
   4    -42.6788264  0.227124E-06  0.323E-02    1.09       1.0  T
   5    -42.6788591 -0.326567E-04  0.502E-03    1.07       4.0  T
   6    -42.6788595 -0.486465E-06  0.239E-03    1.07       8.4  T
   7    -42.6788596 -0.656268E-07  0.119E-03    1.07      16.8  T
   8    -42.6788596 -0.163810E-07  0.279E-04    1.07      71.7  T
   9    -42.6788596 -0.275072E-09  0.127E-04    1.07     157.4  T
     SCC iter.                  ...        0 min,  0.013 sec
     gradient                   ...        0 min,  0.013 sec
 * total energy  :   -42.1596857 Eh     change       -0.1184738E-02 Eh
   gradient norm :     0.0118317 Eh/α   predicted    -0.9324349E-03 ( -21.30%)
   displ. norm   :     0.1881049 α      lambda       -0.6956439E-03
   maximum displ.:     0.1405885 α      in ANC's #1, #5, #49, ...

........................................................................
.............................. CYCLE   31 ..............................
........................................................................

 iter      E             dE          RMSdq      gap      omega  full diag
   1    -42.6789360 -0.426789E+02  0.162E-01    1.07       0.0  T
   2    -42.6781032  0.832796E-03  0.203E-01    1.13       1.0  T
   3    -42.6791088 -0.100559E-02  0.890E-02    1.05       1.0  T
   4    -42.6791857 -0.769166E-04  0.489E-02    1.10       1.0  T
   5    -42.6792463 -0.606276E-04  0.531E-03    1.08       3.8  T
   6    -42.6792468 -0.415202E-06  0.236E-03    1.08       8.5  T
   7    -42.6792468 -0.141176E-07  0.145E-03    1.08      13.8  T
   8    -42.6792468 -0.378339E-07  0.455E-04    1.08      44.0  T
   9    -42.6792468 -0.177530E-08  0.163E-04    1.08     122.5  T
     SCC iter.                  ...        0 min,  0.013 sec
     gradient                   ...        0 min,  0.013 sec
 * total energy  :   -42.1601365 Eh     change       -0.4508302E-03 Eh
   gradient norm :     0.0245540 Eh/α   predicted    -0.3601463E-03 ( -20.11%)
   displ. norm   :     0.1740787 α      lambda       -0.5979141E-03
   maximum displ.:     0.0884136 α      in ANC's #1, #5, #49, ...

........................................................................
.............................. CYCLE   32 ..............................
........................................................................

 iter      E             dE          RMSdq      gap      omega  full diag
   1    -42.6792236 -0.426792E+02  0.154E-01    1.07       0.0  T
   2    -42.6785370  0.686637E-03  0.181E-01    1.14       1.0  T
   3    -42.6793097 -0.772778E-03  0.940E-02    1.06       1.0  T
   4    -42.6793978 -0.880913E-04  0.458E-02    1.11       1.0  T
   5    -42.6794558 -0.580182E-04  0.409E-03    1.09       4.9  T
   6    -42.6794560 -0.189360E-06  0.199E-03    1.09      10.0  T
   7    -42.6794561 -0.255314E-07  0.781E-04    1.09      25.6  T
   8    -42.6794561 -0.942508E-08  0.267E-04    1.09      75.0  T
     SCC iter.                  ...        0 min,  0.011 sec
     gradient                   ...        0 min,  0.013 sec
 * total energy  :   -42.1605516 Eh     change       -0.4150936E-03 Eh
   gradient norm :     0.0197797 Eh/α   predicted    -0.3080187E-03 ( -25.80%)
   displ. norm   :     0.1938020 α      lambda       -0.5610464E-03
   maximum displ.:     0.1079521 α      in ANC's #1, #5, #49, ...

........................................................................
.............................. CYCLE   33 ..............................
........................................................................

 iter      E             dE          RMSdq      gap      omega  full diag
   1    -42.6802746 -0.426803E+02  0.165E-01    1.07       0.0  T
   2    -42.6793927  0.881892E-03  0.214E-01    1.15       1.0  T
   3    -42.6804800 -0.108727E-02  0.824E-02    1.06       1.0  T
   4    -42.6805112 -0.311992E-04  0.470E-02    1.11       1.0  T
   5    -42.6805742 -0.629833E-04  0.544E-03    1.09       3.7  T
   6    -42.6805745 -0.351816E-06  0.295E-03    1.09       6.8  T
   7    -42.6805746 -0.856170E-07  0.145E-03    1.09      13.8  T
   8    -42.6805746 -0.268510E-07  0.379E-04    1.09      52.7  T
   9    -42.6805746 -0.159243E-08  0.196E-04    1.09     101.8  T
     SCC iter.                  ...        0 min,  0.013 sec
     gradient                   ...        0 min,  0.013 sec
 * total energy  :   -42.1608470 Eh     change       -0.2953592E-03 Eh
   gradient norm :     0.0091685 Eh/α   predicted    -0.2910640E-03 (  -1.45%)
   displ. norm   :     0.0823081 α      lambda       -0.1990811E-03
   maximum displ.:     0.0502431 α      in ANC's #1, #49, #3, ...

........................................................................
.............................. CYCLE   34 ..............................
........................................................................

 iter      E             dE          RMSdq      gap      omega  full diag
   1    -42.6821380 -0.426821E+02  0.413E-02    1.08       0.0  T
   2    -42.6821145  0.234986E-04  0.398E-02    1.10       1.0  T
   3    -42.6821343 -0.198537E-04  0.280E-02    1.08       1.0  T
   4    -42.6821458 -0.115193E-04  0.827E-03    1.09       2.4  T
   5    -42.6821473 -0.147148E-05  0.277E-03    1.09       7.2  T
   6    -42.6821474 -0.126121E-06  0.142E-03    1.09      14.1  T
   7    -42.6821475 -0.259482E-07  0.720E-04    1.09      27.8  T
   8    -42.6821475 -0.755958E-08  0.205E-04    1.09      97.4  T
     SCC iter.                  ...        0 min,  0.011 sec
     gradient                   ...        0 min,  0.013 sec
 * total energy  :   -42.1609640 Eh     change       -0.1169920E-03 Eh
   gradient norm :     0.0050328 Eh/α   predicted    -0.1002171E-03 ( -14.34%)
   displ. norm   :     0.1557727 α      lambda       -0.1399198E-03
   maximum displ.:     0.1071911 α      in ANC's #1, #49, #5, ...

........................................................................
.............................. CYCLE   35 ..............................
........................................................................

 iter      E             dE          RMSdq      gap      omega  full diag
   1    -42.6814740 -0.426815E+02  0.980E-02    1.08       0.0  T
   2    -42.6812355  0.238527E-03  0.108E-01    1.13       1.0  T
   3    -42.6814867 -0.251259E-03  0.643E-02    1.07       1.0  T
   4    -42.6815410 -0.542475E-04  0.190E-02    1.10       1.1  T
   5    -42.6815500 -0.903750E-05  0.349E-03    1.09       5.7  T
   6    -42.6815503 -0.293825E-06  0.147E-03    1.09      13.6  T
   7    -42.6815503 -0.227529E-07  0.694E-04    1.09      28.8  T
   8    -42.6815503 -0.250134E-08  0.266E-04    1.09      75.3  T
     SCC iter.                  ...        0 min,  0.011 sec
     gradient                   ...        0 min,  0.013 sec
 * total energy  :   -42.1610062 Eh     change       -0.4227026E-04 Eh
   gradient norm :     0.0117005 Eh/α   predicted    -0.7165846E-04 (  69.52%)
   displ. norm   :     0.0476907 α      lambda       -0.1235943E-03
   maximum displ.:     0.0266126 α      in ANC's #3, #7, #5, ...

........................................................................
.............................. CYCLE   36 ..............................
........................................................................

 iter      E             dE          RMSdq      gap      omega  full diag
   1    -42.6825459 -0.426825E+02  0.364E-02    1.09       0.0  T
   2    -42.6825187  0.271426E-04  0.423E-02    1.08       1.0  T
   3    -42.6825568 -0.380645E-04  0.189E-02    1.09       1.1  T
   4    -42.6825570 -0.266095E-06  0.125E-02    1.08       1.6  T
   5    -42.6825613 -0.421164E-05  0.318E-03    1.09       6.3  T
   6    -42.6825615 -0.215891E-06  0.120E-03    1.09      16.7  T
   7    -42.6825615 -0.219080E-07  0.608E-04    1.09      32.9  T
   8    -42.6825615 -0.364071E-08  0.224E-04    1.09      89.3  T
     SCC iter.                  ...        0 min,  0.011 sec
     gradient                   ...        0 min,  0.013 sec
 * total energy  :   -42.1610690 Eh     change       -0.6279569E-04 Eh
   gradient norm :     0.0033826 Eh/α   predicted    -0.6194177E-04 (  -1.36%)
   displ. norm   :     0.0387301 α      lambda       -0.2442156E-04
   maximum displ.:     0.0218625 α      in ANC's #3, #1, #2, ...

........................................................................
.............................. CYCLE   37 ..............................
........................................................................

 iter      E             dE          RMSdq      gap      omega  full diag
   1    -42.6829051 -0.426829E+02  0.127E-02    1.09       0.0  T
   2    -42.6829037  0.141219E-05  0.112E-02    1.09       1.8  T
   3    -42.6829041 -0.475507E-06  0.898E-03    1.09       2.2  T
   4    -42.6829056 -0.149660E-05  0.122E-03    1.09      16.4  T
   5    -42.6829057 -0.143237E-07  0.682E-04    1.09      29.3  T
   6    -42.6829057 -0.856756E-08  0.363E-04    1.09      55.1  T
     SCC iter.                  ...        0 min,  0.009 sec
     gradient                   ...        0 min,  0.013 sec
 * total energy  :   -42.1610871 Eh     change       -0.1805277E-04 Eh
   gradient norm :     0.0023584 Eh/α   predicted    -0.1223277E-04 ( -32.24%)
   displ. norm   :     0.0605596 α      lambda       -0.2602164E-04
   maximum displ.:     0.0370497 α      in ANC's #3, #1, #2, ...

   *** GEOMETRY OPTIMIZATION CONVERGED AFTER 37 ITERATIONS ***

------------------------------------------------------------------------
 total energy gain   :        -3.9628298 Eh    -2486.7132 kcal/mol
 total RMSD          :         0.8360975 a0        0.4424 Å
 total power (kW/mol):      -281.2002208 (step)-8889.5004 (real)
------------------------------------------------------------------------

 ANCopt (total)                0 d,  0 h,  0 min,  1.170 sec
 optimizer setup                ...        0 min,  0.000 sec (  0.040%)
 model hessian                  ...        0 min,  0.014 sec (  1.220%)
 ANC generation                 ...        0 min,  0.002 sec (  0.149%)
 coordinate transformation      ...        0 min,  0.000 sec (  0.031%)
 single point calculation       ...        0 min,  1.144 sec ( 97.722%)
 optimization log               ...        0 min,  0.003 sec (  0.296%)
 hessian update                 ...        0 min,  0.000 sec (  0.042%)
 rational function              ...        0 min,  0.004 sec (  0.351%)

================
 final structure:
================
25
 xtb: 6.6.1 (8d0f1dd)
C            3.22747697083048        1.20609029601826       -0.04382514371362
N            2.32629687021757        0.08504689338294       -0.05264512090117
C            2.65316921104379       -1.20681951133335       -0.07529405516698
N            1.53742443946762       -1.96308747086816       -0.04851527426686
C            0.45919842525333       -1.12139091567993       -0.00742859478918
C            0.95425850092965        0.17640511807830       -0.00947420393277
C            0.10572373134873        1.33621194544877        0.03007731003705
O            0.44726951389717        2.50256523407078        0.03798070265450
N           -1.24256820536110        0.94173062518702        0.05314852782581
C           -2.24456792819053        1.99536353978152        0.08382560517017
C           -1.68811987998700       -0.33124409672491        0.03565855287034
O           -3.00418203045042       -0.51577366063308        0.00074183583383
N           -0.87543083485468       -1.43356039251335        0.03494781668741
C           -1.35408997845611       -2.69982494021679        0.00381635694974
H            3.75012075872773        1.26301153108627        0.91217674032701
H            3.96187320375035        1.10939712299912       -0.84225446058450
H            2.64604704038275        2.11762150123073       -0.18117667309705
H            3.65212152963793       -1.59319713992924       -0.10884274390867
H           -1.71250600261235        2.94460113687615        0.08680878188837
H           -2.88658364140216        1.92684104066107       -0.79258419322859
H           -2.85633781996060        1.90359526682865        0.97930827781166
H           -2.34128290870476       -2.92078611214264        0.34463057551068
H           -0.66264829077133       -3.50187102861658       -0.08672373768959
H           -3.20189203849714       -1.43044614848257       -0.26886060210833
H            1.50966087786097       -2.97224129290889       -0.05432466227926

 Bond Distances (Angstroems)
 ---------------------------
C1-N2=1.4384         C1-H15=1.0910        C1-H16=1.0891        C1-H17=1.0899        N2-C1=1.4384         N2-C3=1.3328         
N2-C6=1.3758         C3-N2=1.3328         C3-N4=1.3482         C3-H18=1.0716        N4-C3=1.3482         N4-C5=1.3685         
N4-H25=1.0096        C5-N4=1.3685         C5-C6=1.3890         C5-N13=1.3713        C6-N2=1.3758         C6-C5=1.3890         
C6-C7=1.4376         C7-C6=1.4376         C7-O8=1.2154         C7-N9=1.4050         O8-C7=1.2154         N9-C7=1.4050         
N9-C10=1.4543        N9-C11=1.3488        C10-N9=1.4543        C10-H19=1.0882       C10-H20=1.0886       C10-H21=1.0884       
C11-N9=1.3488        C11-O12=1.3294       C11-N13=1.3695       O12-C11=1.3294       O12-H24=0.9739       N13-C5=1.3713        
N13-C11=1.3695       N13-C14=1.3541       C14-N13=1.3541       C14-H22=1.0675       C14-H23=1.0628       H15-C1=1.0910        
H16-C1=1.0891        H17-C1=1.0899        H18-C3=1.0716        H19-C10=1.0882       H20-C10=1.0886       H21-C10=1.0884       
H22-C14=1.0675       H23-C14=1.0628       H24-O12=0.9739       H25-N4=1.0096        
 C  H  Rav=1.0819 sigma=0.0106  Rmin=1.0628  Rmax=1.0910     9
 C  C  Rav=1.4133 sigma=0.0243  Rmin=1.3890  Rmax=1.4376     2
 N  H  Rav=1.0096 sigma=0.0000  Rmin=1.0096  Rmax=1.0096     1
 N  C  Rav=1.3788 sigma=0.0366  Rmin=1.3328  Rmax=1.4543    11
 O  H  Rav=0.9739 sigma=0.0000  Rmin=0.9739  Rmax=0.9739     1
 O  C  Rav=1.2724 sigma=0.0570  Rmin=1.2154  Rmax=1.3294     2

 selected bond angles (degree)
 --------------------
H15-C1-N2=110.25               H16-C1-N2=110.41               H16-C1-H15=108.90              H17-C1-N2=108.47               
H17-C1-H15=108.81              H17-C1-H16=109.97              C3-N2-C1=127.01                C6-N2-C1=124.95                
C6-N2-C3=108.03                N4-C3-N2=109.90                H18-C3-N2=125.36               H18-C3-N4=124.74               
C5-N4-C3=107.92                H25-N4-C3=125.69               H25-N4-C5=126.39               C6-C5-N4=107.09                
N13-C5-N4=128.88               N13-C5-C6=124.03               C5-C6-N2=107.06                C7-C6-N2=130.02                
C7-C6-C5=122.91                O8-C7-C6=127.48                N9-C7-C6=109.90                N9-C7-O8=122.62                
C10-N9-C7=117.26               C11-N9-C7=125.57               C11-N9-C10=117.16              H19-C10-N9=107.17              
H20-C10-N9=110.11              H20-C10-H19=110.21             H21-C10-N9=110.09              H21-C10-H19=110.25             
H21-C10-H20=109.00             

 selected dihedral angles (degree)
 ---------------------------------
C3-N2-C1-H15=290.34           C3-N2-C1-H16= 50.72           C3-N2-C1-H17=171.29           C6-N2-C1-H15=108.85           
C6-N2-C1-H16=229.24           C6-N2-C1-H17=349.81           N4-C3-N2-C1=178.73            N4-C3-N2-C6=  0.00            
H18-C3-N2-C1=358.79           H18-C3-N2-C6=180.07           C5-N4-C3-N2=  0.00            C5-N4-C3-H18=179.95           
H25-N4-C3-N2=180.22           H25-N4-C3-H18=  0.17          C6-C5-N4-C3=  0.00            C6-C5-N4-H25=179.76           
N13-C5-N4-C3=180.25           N13-C5-N4-H25=  0.03          C5-C6-N2-C1=181.22            C5-C6-N2-C3=359.98            
C7-C6-N2-C1=  1.14            C7-C6-N2-C3=179.89            N2-C6-C5-N4=  0.03            N2-C6-C5-N13=179.78           
C7-C6-C5-N4=180.11            C7-C6-C5-N13=359.85           O8-C7-C6-N2=359.72            O8-C7-C6-C5=179.62            
N9-C7-C6-N2=179.41            N9-C7-C6-C5=359.31            C10-N9-C7-C6=180.46           C10-N9-C7-O8=  0.17           
C11-N9-C7-C6=359.75           C11-N9-C7-O8=179.46           H19-C10-N9-C7=359.77          H19-C10-N9-C11=180.42         
H20-C10-N9-C7=119.65          H20-C10-N9-C11=300.30         H21-C10-N9-C7=239.86          H21-C10-N9-C11= 60.51         
           -------------------------------------------------
          |                Final Singlepoint                |
           -------------------------------------------------

          ...................................................
          :                      SETUP                      :
          :.................................................:
          :  # basis functions                  67          :
          :  # atomic orbitals                  67          :
          :  # shells                           39          :
          :  # electrons                        74          :
          :  max. iterations                   250          :
          :  Hamiltonian                  GFN2-xTB          :
          :  restarted?                      false          :
          :  GBSA solvation                  false          :
          :  PC potential                    false          :
          :  electronic temp.         2500.0000000     K    :
          :  accuracy                    1.0000000          :
          :  -> integral cutoff          0.2500000E+02      :
          :  -> integral neglect         0.1000000E-07      :
          :  -> SCF convergence          0.1000000E-05 Eh   :
          :  -> wf. convergence          0.1000000E-03 e    :
          :  Broyden damping             0.4000000          :
          ...................................................

 iter      E             dE          RMSdq      gap      omega  full diag
   1    -42.6829057 -0.426829E+02  0.212E-04    1.09       0.0  T
   2    -42.6829057  0.138925E-08  0.275E-04    1.09      72.8  T
   3    -42.6829057 -0.217132E-08  0.102E-04    1.09     196.8  T

   *** convergence criteria satisfied after 3 iterations ***

         #    Occupation            Energy/Eh            Energy/eV
      -------------------------------------------------------------
         1        2.0000           -0.9035637             -24.5872
       ...           ...                  ...                  ...
        31        2.0000           -0.6119920             -16.6532
        32        2.0000           -0.6071857             -16.5224
        33        2.0000           -0.5988808             -16.2964
        34        2.0000           -0.5818156             -15.8320
        35        2.0000           -0.5680590             -15.4577
        36        2.0000           -0.5478596             -14.9080
        37        1.8400           -0.4631299             -12.6024 (HOMO)
        38        0.1362           -0.4230836             -11.5127 (LUMO)
        39        0.0237           -0.4087700             -11.1232
        40        0.0002           -0.3691492             -10.0451
        41                         -0.2798279              -7.6145
        42                         -0.1923791              -5.2349
       ...                                ...                  ...
        67                          0.5374138              14.6238
      -------------------------------------------------------------
                  HL-Gap            0.0400463 Eh            1.0897 eV
             Fermi-level           -0.4437962 Eh          -12.0763 eV

 SCC (total)                   0 d,  0 h,  0 min,  0.023 sec
 SCC setup                      ...        0 min,  0.000 sec (  0.846%)
 Dispersion                     ...        0 min,  0.000 sec (  0.838%)
 classical contributions        ...        0 min,  0.000 sec (  0.304%)
 integral evaluation            ...        0 min,  0.005 sec ( 21.659%)
 iterations                     ...        0 min,  0.005 sec ( 20.292%)
 molecular gradient             ...        0 min,  0.013 sec ( 55.415%)
 printout                       ...        0 min,  0.000 sec (  0.585%)

         :::::::::::::::::::::::::::::::::::::::::::::::::::::
         ::                     SUMMARY                     ::
         :::::::::::::::::::::::::::::::::::::::::::::::::::::
         :: total energy             -42.161087071047 Eh    ::
         :: gradient norm              0.002362811665 Eh/a0 ::
         :: HOMO-LUMO gap              1.089715680818 eV    ::
         ::.................................................::
         :: SCC energy               -42.682905660845 Eh    ::
         :: -> isotropic ES            0.131035388005 Eh    ::
         :: -> anisotropic ES         -0.003029709338 Eh    ::
         :: -> anisotropic XC          0.011435220106 Eh    ::
         :: -> dispersion             -0.023050792531 Eh    ::
         :: repulsion energy           0.521705467151 Eh    ::
         :: add. restraining           0.000007374309 Eh    ::
         :: total charge               0.999999999721 e     ::
         :::::::::::::::::::::::::::::::::::::::::::::::::::::

           -------------------------------------------------
          |                Property Printout                |
           -------------------------------------------------

    * Orbital Energies and Occupations

         #    Occupation            Energy/Eh            Energy/eV
      -------------------------------------------------------------
         1        2.0000           -0.9035637             -24.5872
       ...           ...                  ...                  ...
        25        2.0000           -0.6658232             -18.1180
        26        2.0000           -0.6605958             -17.9757
        27        2.0000           -0.6592609             -17.9394
        28        2.0000           -0.6408673             -17.4389
        29        2.0000           -0.6327157             -17.2171
        30        2.0000           -0.6233806             -16.9631
        31        2.0000           -0.6119920             -16.6532
        32        2.0000           -0.6071857             -16.5224
        33        2.0000           -0.5988808             -16.2964
        34        2.0000           -0.5818156             -15.8320
        35        2.0000           -0.5680590             -15.4577
        36        2.0000           -0.5478596             -14.9080
        37        1.8400           -0.4631299             -12.6024 (HOMO)
        38        0.1362           -0.4230836             -11.5127 (LUMO)
        39        0.0237           -0.4087700             -11.1232
        40        0.0002           -0.3691492             -10.0451
        41                         -0.2798279              -7.6145
        42                         -0.1923791              -5.2349
        43                         -0.1893702              -5.1530
        44                         -0.1413008              -3.8450
        45                         -0.1208259              -3.2878
        46                         -0.0917182              -2.4958
        47                         -0.0542553              -1.4764
        48                         -0.0302450              -0.8230
       ...                                ...                  ...
        67                          0.5374138              14.6238
      -------------------------------------------------------------
                  HL-Gap            0.0400463 Eh            1.0897 eV
             Fermi-level           -0.4437962 Eh          -12.0763 eV

     #   Z          covCN         q      C6AA      α(0)
     1   6 C        3.691    -0.094    22.495     6.787
     2   7 N        2.833     0.076    19.923     6.629
     3   6 C        3.049     0.049    26.847     8.498
     4   7 N        2.789    -0.053    22.258     7.007
     5   6 C        3.088     0.084    26.035     8.364
     6   6 C        3.110    -0.017    28.270     8.711
     7   6 C        2.767     0.245    22.896     7.836
     8   8 O        0.857    -0.404    21.756     6.254
     9   7 N        2.748    -0.042    22.057     6.975
    10   6 C        3.709    -0.071    22.006     6.705
    11   6 C        2.781     0.220    23.354     7.915
    12   8 O        1.660    -0.335    19.625     5.980
    13   7 N        2.736     0.024    20.828     6.778
    14   6 C        2.798    -0.165    32.254     9.304
    15   1 H        0.924     0.106     1.733     2.059
    16   1 H        0.925     0.102     1.766     2.078
    17   1 H        0.925     0.138     1.476     1.900
    18   1 H        0.926     0.123     1.592     1.973
    19   1 H        0.925     0.124     1.581     1.966
    20   1 H        0.925     0.097     1.809     2.103
    21   1 H        0.925     0.098     1.800     2.098
    22   1 H        0.927     0.059     2.209     2.324
    23   1 H        0.927     0.049     2.330     2.387
    24   1 H        0.804     0.356     0.575     1.192
    25   1 H        0.860     0.229     0.968     1.541

 Mol. C6AA /au·bohr⁶  :       6644.226164
 Mol. C8AA /au·bohr⁸  :     153366.536328
 Mol. α(0) /au        :        125.365434


Wiberg/Mayer (AO) data.
largest (>0.10) Wiberg bond orders for each atom

 ---------------------------------------------------------------------------
     #   Z sym  total        # sym  WBO       # sym  WBO       # sym  WBO
 ---------------------------------------------------------------------------
     1   6 C    3.917 --     2 N    0.986    16 H    0.965    17 H    0.960
                            15 H    0.957
     2   7 N    3.656 --     3 C    1.364     6 C    1.156     1 C    0.986
     3   6 C    3.822 --     2 N    1.364     4 N    1.289    18 H    0.953
     4   7 N    3.574 --     3 C    1.289     5 C    1.179    25 H    0.916
     5   6 C    3.917 --     6 C    1.349     4 N    1.179    13 N    1.112
     6   6 C    3.925 --     5 C    1.349     2 N    1.156     7 C    1.100
     7   6 C    3.939 --     8 O    1.621     6 C    1.100     9 N    1.062
     8   8 O    1.946 --     7 C    1.621     9 N    0.150
     9   7 N    3.601 --    11 C    1.246     7 C    1.062    10 C    0.968
                             8 O    0.150
    10   6 C    3.916 --     9 N    0.968    21 H    0.966    20 H    0.965
                            19 H    0.965
    11   6 C    3.876 --     9 N    1.246    13 N    1.149    12 O    1.140
                            14 C    0.177
    12   8 O    2.179 --    11 C    1.140    24 H    0.826
    13   7 N    3.670 --    14 C    1.210    11 C    1.149     5 C    1.112
    14   6 C    3.568 --    13 N    1.210    23 H    0.974    22 H    0.961
                            11 C    0.177
    15   1 H    0.984 --     1 C    0.957
    16   1 H    0.986 --     1 C    0.965
    17   1 H    0.981 --     1 C    0.960
    18   1 H    0.984 --     3 C    0.953
    19   1 H    0.984 --    10 C    0.965
    20   1 H    0.989 --    10 C    0.965
    21   1 H    0.988 --    10 C    0.966
    22   1 H    0.995 --    14 C    0.961
    23   1 H    0.997 --    14 C    0.974
    24   1 H    0.872 --    12 O    0.826
    25   1 H    0.947 --     4 N    0.916
 ---------------------------------------------------------------------------

Topologies differ in total number of bonds
Writing topology from bond orders to xtbtopo.mol

molecular dipole:
                 x           y           z       tot (Debye)
 q only:        1.349      -1.827      -0.188
   full:        1.460      -2.595      -0.157       7.580
molecular quadrupole (traceless):
                xx          xy          yy          xz          yz          zz
 q only:       24.771      -5.288      -5.068       0.396       0.807     -19.702
  q+dip:       23.730      -6.674      -5.552       0.153       0.400     -18.177
   full:       23.348      -6.388      -6.283       0.307       0.439     -17.065

           -------------------------------------------------
          |                Geometry Summary                 |
           -------------------------------------------------

      molecular mass/u    :      195.1988581
   center of mass at/Å    :        0.0553043      -0.0528623       0.0032432
  moments of inertia/u·Å² :        0.4689267E+03   0.7210138E+03   0.1183027E+04
rotational constants/cm⁻¹ :        0.3594940E-01   0.2338046E-01   0.1424957E-01

 * 26 selected distances

     #   Z          #   Z                                           value/Å
     1   6 C        2   7 N                                       1.4383818
     2   7 N        3   6 C                                       1.3327707
     3   6 C        4   7 N                                       1.3481636
     4   7 N        5   6 C                                       1.3684710
     2   7 N        6   6 C                                       1.3757542
     5   6 C        6   6 C                                       1.3890153
     6   6 C        7   6 C                                       1.4376119
     7   6 C        8   8 O                                       1.2153585
     7   6 C        9   7 N                                       1.4050051
     9   7 N       10   6 C                                       1.4543340 (max)
     9   7 N       11   6 C                                       1.3488095
    11   6 C       12   8 O                                       1.3293947
     5   6 C       13   7 N                                       1.3713064
    11   6 C       13   7 N                                       1.3695129
    13   7 N       14   6 C                                       1.3540716
     1   6 C       15   1 H                                       1.0910254
     1   6 C       16   1 H                                       1.0891175
     1   6 C       17   1 H                                       1.0898695
     3   6 C       18   1 H                                       1.0715965
    10   6 C       19   1 H                                       1.0881870
    10   6 C       20   1 H                                       1.0885650
    10   6 C       21   1 H                                       1.0883810
    14   6 C       22   1 H                                       1.0674869
    14   6 C       23   1 H                                       1.0628110
    12   8 O       24   1 H                                       0.9738586 (min)
     4   7 N       25   1 H                                       1.0095525

 * 6 distinct bonds (by element types)

   Z      Z             #   av. dist./Å        max./Å        min./Å
   1 H    6 C           9     1.0818933     1.0910254     1.0628110
   6 C    6 C           2     1.4133136     1.4376119     1.3890153
   1 H    7 N           1     1.0095525     1.0095525     1.0095525
   6 C    7 N          11     1.3787801     1.4543340     1.3327707
   1 H    8 O           1     0.9738586     0.9738586     0.9738586
   6 C    8 O           2     1.2723766     1.3293947     1.2153585


optimized geometry written to: xtbopt.xyz


           -------------------------------------------------
          | TOTAL ENERGY              -42.161087071047 Eh   |
          | GRADIENT NORM               0.002362811665 Eh/α |
          | HOMO-LUMO GAP               1.089715680818 eV   |
           -------------------------------------------------

------------------------------------------------------------------------
 * finished run on 2024/06/05 at 19:58:08.944     
------------------------------------------------------------------------
 total:
 * wall-time:     0 d,  0 h,  0 min,  1.266 sec
 *  cpu-time:     0 d,  0 h,  0 min,  1.246 sec
 * ratio c/w:     0.984 speedup
 SCF:
 * wall-time:     0 d,  0 h,  0 min,  0.039 sec
 *  cpu-time:     0 d,  0 h,  0 min,  0.039 sec
 * ratio c/w:     1.000 speedup
 ANC optimizer:
 * wall-time:     0 d,  0 h,  0 min,  1.199 sec
 *  cpu-time:     0 d,  0 h,  0 min,  1.194 sec
 * ratio c/w:     0.996 speedup

