25
 energy: -40.266367787147 gnorm: 11.296584403395 xtb: 6.6.1 (8d0f1dd)
C            3.02935917485969        1.15876349945779        0.05204581350182
N            2.30206373002369       -0.08042277231226        0.01914043088683
C            2.82154343341779       -1.31047285491290       -0.09918205064001
N            1.81865866867804       -2.22896931622454       -0.09817447521976
C            0.63327207364523       -1.56043696886762        0.02691762841437
C            0.93209996886849       -0.20039447754388        0.09851933884373
C           -0.11898180915591        0.79897943814623        0.20862012210755
O            0.03225703463516        2.00605556320602        0.26275146953611
N           -1.35999961035020        0.17954960388120        0.23485312255421
C           -3.49753426812154        3.66782011188060       -0.10938862883880
C           -1.58842131356927       -1.06035901061068        0.17525659597429
O           -2.53203491746448        2.80860294637851       -0.33170846689368
N           -0.64042863520022       -2.03121304603221        0.07014279283153
C           -0.96452954443110       -3.43605782680280       -0.00975582044619
H            3.74670608440935        1.15711746175041        0.87351829458669
H            3.56787246423432        1.30975646189865       -0.88509470156838
H            2.31797443432987        1.97261975361698        0.19236546729517
H            3.86315213333579       -1.53791780305806       -0.18737827660839
H           -2.16356321534856        2.77622308053931       -0.16334622208752
H           -4.41948326690575        3.57459306554872       -0.66346210865737
H           -3.37962602158023        4.46124133682095        0.62104953382816
H           -0.46900118956158       -3.99301926790691        0.78900893776164
H           -0.66917721312196       -3.84659860466931       -0.97852907148327
H           -2.04264065427919       -3.53944770879530        0.10260416530514
H            1.94089397260470       -3.22777412366646       -0.16960227343341
25
 energy: -42.096287881730 gnorm: 0.327409953389 xtb: 6.6.1 (8d0f1dd)
C            3.02935276699336        1.15876626750795        0.05203940684693
N            2.30205450511974       -0.08041917573452        0.01913355034227
C            2.82154242189148       -1.31044754757981       -0.09918210094784
N            1.81862117412704       -2.22898948755569       -0.09815608697205
C            0.63327923575567       -1.56043109840235        0.02689879558938
C            0.93211580944958       -0.20040792864303        0.09851125627427
C           -0.11904181290466        0.79896589663454        0.20862589681038
O            0.03224264499934        2.00607878598390        0.26273214122092
N           -1.35999040218340        0.17955833690905        0.23484399229610
C           -3.50952312851168        3.67363101694181       -0.11074276979622
C           -1.58837942570944       -1.06038407598327        0.17526217037480
O           -2.81320482117804        2.83438233297092       -0.45931792186694
N           -0.64046263823480       -2.03120397703912        0.07014381830449
C           -0.96454271233970       -3.43606313509222       -0.00974856446250
H            3.74670221629188        1.15711860143315        0.87351634419178
H            3.56786733339675        1.30975242809563       -0.88508469128275
H            2.31797941500383        1.97260915285452        0.19236243089890
H            3.86314956930223       -1.53792928890740       -0.18737016680717
H           -1.87021875814974        2.74392414813362       -0.03487496024051
H           -4.42045088683631        3.57559949612575       -0.66312089213360
H           -3.37878249405780        4.46092351844706        0.62122578574171
H           -0.46901735891727       -3.99299974196362        0.78898745848168
H           -0.66917805688960       -3.84659289237967       -0.97850456321230
H           -2.04260272733284       -3.53945095303103        0.10259767947726
H            1.94091964486651       -3.22775213800375       -0.16960639157853
25
 energy: -42.126625744799 gnorm: 0.049049429331 xtb: 6.6.1 (8d0f1dd)
C            3.02821135235977        1.16223475122580        0.05514785986156
N            2.30050877426343       -0.07585087694127        0.02192308143622
C            2.82266942535129       -1.30675240417457       -0.09485446790853
N            1.81955758948123       -2.22642504914589       -0.09427726283639
C            0.63358691701477       -1.55798473860447        0.02834445477399
C            0.92906972548544       -0.19589855456197        0.10008239627496
C           -0.12859348705843        0.79733539460226        0.20634480982528
O            0.00378715723612        2.01525907139675        0.25324747952528
N           -1.36626071147995        0.17808800351660        0.23127695985717
C           -3.53294955709050        3.71197378224428       -0.09030257785346
C           -1.59284404592140       -1.06550902993506        0.17411121535377
O           -2.76660865560397        2.74881028416404       -0.51165769217990
N           -0.63923149642268       -2.03156122085843        0.07029400236506
C           -0.96076654479332       -3.43659591194980       -0.00951672631401
H            3.74429236382267        1.16075126770382        0.87772952035602
H            3.56794358908069        1.31230337498790       -0.88119300606729
H            2.31654576353877        1.97503812712786        0.19418343996501
H            3.86413135663878       -1.53446001183524       -0.18101377610479
H           -1.82236425266473        2.64681315535483       -0.09573755153831
H           -4.48519493931052        3.66963756194414       -0.62086098747821
H           -3.35035048005111        4.47653215668977        0.64970165118441
H           -0.46648068018960       -3.99241982998213        0.78986763856011
H           -0.66370804139467       -3.84752938601096       -0.97710725051702
H           -2.03828049976523       -3.54107358913407        0.10102805975830
H            1.94376089142456       -3.22447778610175       -0.16558965274887
25
 energy: -42.129610021287 gnorm: 0.032937397334 xtb: 6.6.1 (8d0f1dd)
C            3.01535480159030        1.17271172254242        0.05443889366219
N            2.28393362438856       -0.06324625419541        0.02111277316673
C            2.81032988678589       -1.29227599739123       -0.09173473471351
N            1.81179034581091       -2.21535897784537       -0.09073333492221
C            0.62354640723371       -1.55193685089220        0.02888815107905
C            0.91108812462164       -0.18655980838941        0.09555698538312
C           -0.16071121523350        0.79516824781163        0.18810070605948
O           -0.05361200696650        2.01744363415572        0.21795210818021
N           -1.38993310243419        0.16491133807275        0.22174560649127
C           -3.49831994192556        3.68435081784242       -0.09739910503059
C           -1.60625009614433       -1.07939686564227        0.17329965510933
O           -2.70043041037386        2.74704748621203       -0.48950979119332
N           -0.64523406212928       -2.03553385549096        0.07094498460839
C           -0.95786372190330       -3.44218079948658       -0.00813123837741
H            3.73127264653193        1.16842764628097        0.87746072459837
H            3.55869341150421        1.31880827958315       -0.88050492983252
H            2.30807975383006        1.98900726554923        0.19169460157060
H            3.85289790680693       -1.51815461849334       -0.17493968861343
H           -1.76115181777875        2.65723363603211       -0.06581050736202
H           -4.45418421505737        3.65946409142845       -0.61547017432589
H           -3.30600351257491        4.43845048109635        0.64742493669660
H           -0.46217430477798       -3.99416820832980        0.79254604851841
H           -0.65727739429381       -3.85155384898732       -0.97502081490338
H           -2.03485195570852       -3.55140385709154        0.10039412046300
H            1.94144236214790       -3.21301616264702       -0.16113435876291
25
 energy: -42.132171914012 gnorm: 0.011734536763 xtb: 6.6.1 (8d0f1dd)
C            2.98442934213189        1.19767899594809        0.05311399730013
N            2.24730783341762       -0.03496154562499        0.01925408256806
C            2.78393762465435       -1.26017267719957       -0.08559005866923
N            1.79465486716599       -2.19141155374896       -0.08372983638210
C            0.60120631809104       -1.53826385186595        0.02819605112134
C            0.87264708071980       -0.16642625947769        0.08895313991068
C           -0.22307895756958        0.79156310890618        0.16447446707071
O           -0.16023011242104        2.02263942057020        0.17446838629286
N           -1.43645144896537        0.14064020005203        0.21497218304244
C           -3.41208835008895        3.63162780347260       -0.10377788172240
C           -1.63552810520302       -1.10647189072866        0.17530878393447
O           -2.59129488898425        2.72742565421144       -0.48832840498033
N           -0.65895181678034       -2.04348005551723        0.07096752878773
C           -0.95101272072502       -3.45468040378587       -0.00677194538005
H            3.69919421399299        1.18836496348126        0.87778768512072
H            3.53404409709449        1.33724265796116       -0.87950027320138
H            2.28464269956266        2.02001979852194        0.18623962532287
H            3.82874231592128       -1.48049425470266       -0.16218056524451
H           -1.65670003356943        2.64759903993216       -0.06237364775817
H           -4.38394346831997        3.65468718146318       -0.58353322876185
H           -3.17564576133268        4.35952458647941        0.66235326531901
H           -0.45118044401070       -3.99903309643565        0.79624971797150
H           -0.64274042677544       -3.86121580330152       -0.97221504390315
H           -2.02695705577001       -3.57610817489421        0.09860531364558
H            1.93542871170725       -3.18805530197972       -0.15177172385913
25
 energy: -42.132980481740 gnorm: 0.011728786066 xtb: 6.6.1 (8d0f1dd)
C            2.96587990337576        1.21075963703874        0.05185564786661
N            2.23224493761338       -0.02419116957333        0.01830726558509
C            2.77326862464666       -1.24748209939146       -0.08419502043733
N            1.78708737532138       -2.18256212593671       -0.08219060458310
C            0.59128290138879       -1.53379858071945        0.02674385932823
C            0.85904053724070       -0.16174658922038        0.08883555541007
C           -0.23513796264272        0.78910424737703        0.17151408565698
O           -0.16666144836059        2.01978458870434        0.19043281794608
N           -1.44734972444870        0.13860751064344        0.22219589390346
C           -3.37020616429437        3.61225179908051       -0.10226371502532
C           -1.64640205303804       -1.10964062975654        0.17804549003642
O           -2.57545098710205        2.70561658791327       -0.52442651337628
N           -0.66654973181197       -2.04378456358444        0.07023216511483
C           -0.95023992131781       -3.45715434733003       -0.00698062537410
H            3.67929494842793        1.20377690202245        0.87761106139743
H            3.51608241693599        1.35071933082244       -0.88033523172870
H            2.26501990889109        2.03259384167597        0.18301993228648
H            3.81885375285761       -1.46341654711823       -0.15821084266585
H           -1.63918243312422        2.61530057018915       -0.10633801346961
H           -4.35355067037791        3.67360923983845       -0.55850312070826
H           -3.09800354817521        4.31557578767480        0.68239889942596
H           -0.44772704063297       -3.99807504479910        0.79691663248679
H           -0.63740737443756       -3.86291262652653       -0.97135562780685
H           -2.02545028327293       -3.58621544052779        0.09712871685663
H            1.93169555027510       -3.17848173674813       -0.14926709058328
25
 energy: -42.133907804904 gnorm: 0.009212066631 xtb: 6.6.1 (8d0f1dd)
C            2.92897207337303        1.23382857082079        0.05017865872533
N            2.20782328670431       -0.00881704623678        0.01865873857253
C            2.75775664044700       -1.22854309949614       -0.08028657771975
N            1.77739036342373       -2.17140154307444       -0.07749722889914
C            0.57666367305733       -1.53120645838855        0.02733657494906
C            0.83803427333337       -0.15920172865543        0.08982075329688
C           -0.25101819622378        0.78267900179802        0.18016194214593
O           -0.16527014953743        2.01527285902854        0.19925413781637
N           -1.46381819527470        0.13643656793427        0.22461310597970
C           -3.29714865810086        3.58835819804614       -0.08963049263265
C           -1.66387603189301       -1.11446385417618        0.17881003755898
O           -2.55129570015085        2.67319463816112       -0.58345955101513
N           -0.67864999867826       -2.04578274438969        0.07032627270595
C           -0.94944018826726       -3.46188947720150       -0.00637982719114
H            3.63922775539499        1.23663518723658        0.87831975501699
H            3.47861453337069        1.37689091196369       -0.88173035991699
H            2.22007879737407        2.04991598348011        0.17744492514698
H            3.80480370414488       -1.43478373813050       -0.15159879860641
H           -1.61245376772241        2.56054298774815       -0.17821825706754
H           -4.28815652279918        3.70593531216954       -0.51554287553863
H           -2.98176480812294        4.24602698557763        0.71990876113019
H           -0.44452752880327       -3.99636573527677        0.80065802170884
H           -0.62670664755650       -3.86579516828665       -0.96849079399104
H           -2.02360136835881       -3.60338550147470        0.09274675393257
H            1.92879417479429       -3.16584256741277       -0.14423205857031
25
 energy: -42.134215118969 gnorm: 0.008883651230 xtb: 6.6.1 (8d0f1dd)
C            2.89923557816255        1.25051197865942        0.04970874471734
N            2.19128064696076        0.00010162206916        0.02087365791149
C            2.74916893382564       -1.21640100160693       -0.07606512169672
N            1.77450574466485       -2.16595749240337       -0.07283376020306
C            0.56926402721440       -1.53361599318889        0.02997468254208
C            0.82366660229038       -0.16066480076545        0.08989952105890
C           -0.26709826114003        0.77521706192951        0.17455832330654
O           -0.17600863817000        2.01051600076606        0.18686637176541
N           -1.47838221949131        0.12927534740592        0.22052888443192
C           -3.24484876086695        3.57860018819321       -0.07925037825656
C           -1.67499890565569       -1.12345049405685        0.17814141902182
O           -2.52439197595608        2.66462774157095       -0.61080153450133
N           -0.68472692515563       -2.05114869479947        0.07149941707820
C           -0.94778280009579       -3.46843794130209       -0.00541358312111
H            3.60716484619958        1.26448710901391        0.87961353616407
H            3.44799130602227        1.39716428697706       -0.88200348345879
H            2.18009470018099        2.05877224076410        0.17302058637055
H            3.79765515183028       -1.41464912665782       -0.14659398618169
H           -1.58478891575300        2.54011316456890       -0.21199761918352
H           -4.23751185912551        3.72183491172392       -0.48563456292301
H           -2.90877387315607        4.20697230507983        0.74010340087440
H           -0.44343661077178       -3.99883349881528        0.80464420320564
H           -0.61759902479076       -3.87056244445868       -0.96577496335992
H           -2.02144241417175       -3.61690244611372        0.08835261140790
H            1.93219516087287       -3.15933148278158       -0.14024474943528
