25
 energy: -42.135343182486 gnorm: 0.002462194626 xtb: 6.6.1 (8d0f1dd)
C            3.29842153046132        1.26967172830870        0.05973417555574
N            2.37129526768415        0.17116246874579        0.04149627593649
C            2.67697804560856       -1.13087164558980        0.04606981769376
N            1.54216872080394       -1.87028127201249        0.02331898137394
C            0.47643790522694       -1.00694350164962        0.00245270591118
C            1.00017893092693        0.28355066473956        0.01470644611205
C            0.16567697643139        1.45438673424640        0.00076478499546
O            0.54589264791351        2.60901102996544        0.01763078593919
N           -1.19547124593186        1.11273023949500       -0.03706427925564
C           -2.15455893298154        2.20791143082761       -0.06740100340727
C           -1.75276706332607       -0.13998409263058       -0.06361954526701
O           -2.93771647043174       -0.33497532632039       -0.12022688067838
N           -0.85401782103901       -1.27501052012999       -0.02474221302693
C           -1.39474979760279       -2.50638181111407       -0.01811082750082
H            3.91494296519618        1.23144261807459        0.95868055238865
H            3.95020282666756        1.23104512424618       -0.81395228404770
H            2.73482616482889        2.20251124053434        0.04866034622320
H            3.66905957541847       -1.53412971840029        0.06558093351416
H           -1.59778171069091        3.14268089518791       -0.04629830967237
H           -2.75921569262683        2.14779921191543       -0.97263101916539
H           -2.81911269704125        2.14379926350613        0.79446774158427
H           -0.77222077104453       -3.37545603272786       -0.01442118825850
H           -2.46516693173120       -2.57551780330098       -0.03653734769301
H           -3.99268109861779       -4.76128623755119        0.15084917329680
H            1.50981018999821       -2.87862614676553        0.02176379534732
