      -----------------------------------------------------------      
     |                   =====================                   |     
     |                           x T B                           |     
     |                   =====================                   |     
     |                         S. Grimme                         |     
     |          Mulliken Center for Theoretical Chemistry        |     
     |                    University of Bonn                     |     
      -----------------------------------------------------------      

   * xtb version 6.6.1 (8d0f1dd) compiled by 'conda@1efc2f54142f' on 2023-08-01

   xtb is free software: you can redistribute it and/or modify it under
   the terms of the GNU Lesser General Public License as published by
   the Free Software Foundation, either version 3 of the License, or
   (at your option) any later version.
   
   xtb is distributed in the hope that it will be useful,
   but WITHOUT ANY WARRANTY; without even the implied warranty of
   MERCHANTABILITY or FITNESS FOR A PARTICULAR PURPOSE.  See the
   GNU Lesser General Public License for more details.
   
   Cite this work as:
   * C. Bannwarth, E. Caldeweyher, S. Ehlert, A. Hansen, P. Pracht,
     J. Seibert, S. Spicher, S. Grimme, WIREs Comput. Mol. Sci., 2020, 11,
     e01493. DOI: 10.1002/wcms.1493
   
   for GFN2-xTB:
   * C. Bannwarth, S. Ehlert and S. Grimme., J. Chem. Theory Comput., 2019,
     15, 1652-1671. DOI: 10.1021/acs.jctc.8b01176
   for GFN1-xTB:
   * S. Grimme, C. Bannwarth, P. Shushkov, J. Chem. Theory Comput., 2017,
     13, 1989-2009. DOI: 10.1021/acs.jctc.7b00118
   for GFN0-xTB:
   * P. Pracht, E. Caldeweyher, S. Ehlert, S. Grimme, ChemRxiv, 2019, preprint.
     DOI: 10.26434/chemrxiv.8326202.v1
   for GFN-FF:
   * S. Spicher and S. Grimme, Angew. Chem. Int. Ed., 2020, 59, 15665-15673.
     DOI: 10.1002/anie.202004239
   
   for ALPB and GBSA implicit solvation:
   * S. Ehlert, M. Stahn, S. Spicher, S. Grimme, J. Chem. Theory Comput.,
     2021, 17, 4250-4261. DOI: 10.1021/acs.jctc.1c00471
   
   for DFT-D4:
   * E. Caldeweyher, C. Bannwarth and S. Grimme, J. Chem. Phys., 2017,
     147, 034112. DOI: 10.1063/1.4993215
   * E. Caldeweyher, S. Ehlert, A. Hansen, H. Neugebauer, S. Spicher,
     C. Bannwarth and S. Grimme, J. Chem. Phys., 2019, 150, 154122.
     DOI: 10.1063/1.5090222
   * E. Caldeweyher, J.-M. Mewes, S. Ehlert and S. Grimme, Phys. Chem. Chem. Phys.
     2020, 22, 8499-8512. DOI: 10.1039/D0CP00502A
   
   for sTDA-xTB:
   * S. Grimme and C. Bannwarth, J. Chem. Phys., 2016, 145, 054103.
     DOI: 10.1063/1.4959605
   
   in the mass-spec context:
   * V. Asgeirsson, C. Bauer and S. Grimme, Chem. Sci., 2017, 8, 4879.
     DOI: 10.1039/c7sc00601b
   * J. Koopman and S. Grimme, ACS Omega 2019, 4, 12, 15120-15133.
     DOI: 10.1021/acsomega.9b02011
   
   for metadynamics refer to:
   * S. Grimme, J. Chem. Theory Comput., 2019, 155, 2847-2862
     DOI: 10.1021/acs.jctc.9b00143
   
   for SPH calculations refer to:
   * S. Spicher and S. Grimme, J. Chem. Theory Comput., 2021, 17, 1701-1714
     DOI: 10.1021/acs.jctc.0c01306
   
   with help from (in alphabetical order)
   P. Atkinson, C. Bannwarth, F. Bohle, G. Brandenburg, E. Caldeweyher
   M. Checinski, S. Dohm, S. Ehlert, S. Ehrlich, I. Gerasimov, C. Hölzer
   A. Katbashev, J. Koopman, C. Lavigne, S. Lehtola, F. März, M. Müller,
   F. Musil, H. Neugebauer, J. Pisarek, C. Plett, P. Pracht, F. Pultar,
   J. Seibert, P. Shushkov, S. Spicher, M. Stahn, M. Steiner, T. Strunk,
   J. Stückrath, T. Rose, and J. Unsleber
   
 * started run on 2024/06/05 at 19:58:02.272     

           -------------------------------------------------
          |                Calculation Setup                |
           -------------------------------------------------

          program call               : xtb struc.xyz --opt loose --input .xc1 --gfn2
          hostname                   : n-62-21-69
          coordinate file            : struc.xyz
          omp threads                :                     1

   ID    Z sym.   atoms
    1    6 C      1, 3, 5-7, 10, 11, 14
    2    7 N      2, 4, 9, 13
    3    8 O      8, 12
    4    1 H      15-25
constraining bond 11 22 to    3.7133300 Å, actual value:    3.1884051 Å

           -------------------------------------------------
          |                 G F N 2 - x T B                 |
           -------------------------------------------------

        Reference                      10.1021/acs.jctc.8b01176
      * Hamiltonian:
        H0-scaling (s, p, d)           1.850000    2.230000    2.230000
        zeta-weighting                 0.500000
      * Dispersion:
        s8                             2.700000
        a1                             0.520000
        a2                             5.000000
        s9                             5.000000
      * Repulsion:
        kExp                           1.500000    1.000000
        rExp                           1.000000
      * Coulomb:
        alpha                          2.000000
        third order                    shell-resolved
        anisotropic                    true
        a3                             3.000000
        a5                             4.000000
        cn-shift                       1.200000
        cn-exp                         4.000000
        max-rad                        5.000000


          ...................................................
          :                      SETUP                      :
          :.................................................:
          :  # basis functions                  67          :
          :  # atomic orbitals                  67          :
          :  # shells                           39          :
          :  # electrons                        74          :
          :  max. iterations                   250          :
          :  Hamiltonian                  GFN2-xTB          :
          :  restarted?                      false          :
          :  GBSA solvation                  false          :
          :  PC potential                    false          :
          :  electronic temp.         5000.0000000     K    :
          :  accuracy                    1.0000000          :
          :  -> integral cutoff          0.2500000E+02      :
          :  -> integral neglect         0.1000000E-07      :
          :  -> SCF convergence          0.1000000E-05 Eh   :
          :  -> wf. convergence          0.1000000E-03 e    :
          :  Broyden damping             0.4000000          :
          ...................................................

 iter      E             dE          RMSdq      gap      omega  full diag
   1    -42.5894031 -0.425894E+02  0.445E+00    3.52       0.0  T
   2    -42.7683054 -0.178902E+00  0.251E+00    3.36       1.0  T
   3    -42.7759211 -0.761567E-02  0.147E+00    3.35       1.0  T
   4    -42.7728404  0.308066E-02  0.553E-01    3.33       1.0  T
   5    -42.7789548 -0.611444E-02  0.112E-01    3.35       1.0  T
   6    -42.7790473 -0.924914E-04  0.614E-02    3.33       1.0  T
   7    -42.7790721 -0.247928E-04  0.258E-02    3.34       1.0  T
   8    -42.7790772 -0.508996E-05  0.938E-03    3.34       2.1  T
   9    -42.7790779 -0.669422E-06  0.448E-03    3.34       4.5  T
  10    -42.7790780 -0.821511E-07  0.115E-03    3.34      17.4  T
  11    -42.7790780 -0.322662E-08  0.553E-04    3.34      36.2  T
  12    -42.7790780 -0.287052E-08  0.180E-04    3.34     111.1  T

   *** convergence criteria satisfied after 12 iterations ***

         #    Occupation            Energy/Eh            Energy/eV
      -------------------------------------------------------------
         1        2.0000           -0.9185990             -24.9964
       ...           ...                  ...                  ...
        31        1.9996           -0.6230278             -16.9534
        32        1.9995           -0.6194601             -16.8564
        33        1.9979           -0.5974976             -16.2587
        34        1.9932           -0.5789629             -15.7544
        35        1.9817           -0.5631863             -15.3251
        36        1.9779           -0.5602245             -15.2445
        37        1.9748           -0.5581234             -15.1873 (HOMO)
        38        0.0652           -0.4353579             -11.8467 (LUMO)
        39        0.0099           -0.4050467             -11.0219
        40        0.0013           -0.3732218             -10.1559
        41        0.0000           -0.2886859              -7.8555
        42                         -0.2065804              -5.6213
       ...                                ...                  ...
        67                          0.5625656              15.3082
      -------------------------------------------------------------
                  HL-Gap            0.1227656 Eh            3.3406 eV
             Fermi-level           -0.4890455 Eh          -13.3076 eV

 SCC (total)                   0 d,  0 h,  0 min,  0.037 sec
 SCC setup                      ...        0 min,  0.000 sec (  0.760%)
 Dispersion                     ...        0 min,  0.000 sec (  0.942%)
 classical contributions        ...        0 min,  0.000 sec (  0.255%)
 integral evaluation            ...        0 min,  0.005 sec ( 14.843%)
 iterations                     ...        0 min,  0.017 sec ( 47.262%)
 molecular gradient             ...        0 min,  0.013 sec ( 35.471%)
 printout                       ...        0 min,  0.000 sec (  0.430%)

         :::::::::::::::::::::::::::::::::::::::::::::::::::::
         ::                     SUMMARY                     ::
         :::::::::::::::::::::::::::::::::::::::::::::::::::::
         :: total energy             -44.215844538486 Eh    ::
         :: gradient norm              5.612353132169 Eh/a0 ::
         :: HOMO-LUMO gap              3.340621582928 eV    ::
         ::.................................................::
         :: SCC energy               -42.779077977399 Eh    ::
         :: -> isotropic ES            0.141123876439 Eh    ::
         :: -> anisotropic ES         -0.005230418907 Eh    ::
         :: -> anisotropic XC          0.011966818540 Eh    ::
         :: -> dispersion             -0.022657731803 Eh    ::
         :: repulsion energy           0.531105277918 Eh    ::
         :: add. restraining          -1.967985998015 Eh    ::
         :: total charge               1.000000000002 e     ::
         :::::::::::::::::::::::::::::::::::::::::::::::::::::

      ----------------------------------------------------------- 
     |                   =====================                   |
     |                        A N C O P T                        |
     |                   =====================                   |
     |               Approximate Normal Coordinate               |
     |                Rational Function Optimizer                |
      ----------------------------------------------------------- 

          ...................................................
          :                      SETUP                      :
          :.................................................:
          :   optimization level             loose          :
          :   max. optcycles                   200          :
          :   ANC micro-cycles                  20          :
          :   degrees of freedom                69          :
          :.................................................:
          :   RF solver                   davidson          :
          :   write xtbopt.log                true          :
          :   linear?                        false          :
          :   energy convergence         0.5000000E-04 Eh   :
          :   grad. convergence          0.4000000E-02 Eh/α :
          :   maxmium RF displ.          1.0000000          :
          :   Hlow (freq-cutoff)         0.1000000E-01      :
          :   Hmax (freq-cutoff)         5.0000000          :
          :   S6 in model hess.         20.0000000          :
          ...................................................

generating ANC from model Hessian ...
Using Lindh-Hessian (1995)
 Shifting diagonal of input Hessian by    7.3454725633384612     
 Lowest  eigenvalues of input Hessian
    0.010000    0.000000    0.000000    0.000000    0.000000    0.000000
    0.000000    7.348473    7.349866    7.354178    7.355413    7.357278
    7.358632    7.364338    7.367621    7.371129    7.384011    7.387219
 Highest eigenvalues
    9.437223    9.497337    9.566361    9.673622    9.772637   10.400232


........................................................................
.............................. CYCLE    1 ..............................
........................................................................

 iter      E             dE          RMSdq      gap      omega  full diag
   1    -42.7790780 -0.427791E+02  0.626E-05    3.34       0.0  T
   2    -42.7790780 -0.124203E-10  0.329E-05    3.34     607.4  T
   3    -42.7790780  0.106581E-12  0.193E-05    3.34    1034.2  T
     SCC iter.                  ...        0 min,  0.005 sec
     gradient                   ...        0 min,  0.013 sec
 * total energy  :   -44.2158445 Eh     change       -0.6650680E-10 Eh
   gradient norm :     5.6123530 Eh/α   predicted     0.0000000E+00 (-100.00%)
   displ. norm   :     0.9981187 α      lambda       -0.5591439E+01
   maximum displ.:     0.9970060 α      in ANC's #1, #9, #11, ...

........................................................................
.............................. CYCLE    2 ..............................
........................................................................

 iter      E             dE          RMSdq      gap      omega  full diag
   1    -42.7188013 -0.427188E+02  0.127E+00    3.17       0.0  T
   2    -42.7331735 -0.143721E-01  0.891E-01    2.39       1.0  T
   3    -42.7366667 -0.349320E-02  0.472E-01    2.81       1.0  T
   4    -42.7368095 -0.142879E-03  0.220E-01    2.52       1.0  T
   5    -42.7374404 -0.630902E-03  0.707E-02    2.68       1.0  T
   6    -42.7375443 -0.103888E-03  0.194E-02    2.65       1.0  T
   7    -42.7375450 -0.660859E-06  0.580E-03    2.66       3.5  T
   8    -42.7375452 -0.197628E-06  0.138E-03    2.66      14.5  T
   9    -42.7375452 -0.958428E-08  0.693E-04    2.66      28.9  T
  10    -42.7375452 -0.358195E-08  0.290E-04    2.66      68.9  T
     SCC iter.                  ...        0 min,  0.014 sec
     gradient                   ...        0 min,  0.013 sec
 * total energy  :   -53.6004704 Eh     change       -0.9384626E+01 Eh
   gradient norm :    13.1510849 Eh/α   predicted    -0.5586368E+01 ( -40.47%)
   displ. norm   :     0.9991620 α      lambda       -0.1313777E+02
   maximum displ.:     0.9979551 α      in ANC's #1, #9, #2, ...

........................................................................
.............................. CYCLE    3 ..............................
........................................................................

 iter      E             dE          RMSdq      gap      omega  full diag
   1    -42.5028620 -0.425029E+02  0.164E+00    2.35       0.0  T
   2    -42.4856416  0.172204E-01  0.167E+00    1.26       1.0  T
   3    -42.5398623 -0.542207E-01  0.731E-01    2.15       1.0  T
   4    -42.5412997 -0.143738E-02  0.490E-01    1.67       1.0  T
   5    -42.5459416 -0.464189E-02  0.189E-01    1.86       1.0  T
   6    -42.5465106 -0.568997E-03  0.471E-02    1.89       1.0  T
   7    -42.5465419 -0.312734E-04  0.195E-02    1.89       1.0  T
   8    -42.5465430 -0.111478E-05  0.740E-03    1.89       2.7  T
   9    -42.5465437 -0.765443E-06  0.255E-03    1.89       7.8  T
  10    -42.5465439 -0.112335E-06  0.895E-04    1.89      22.3  T
  11    -42.5465439 -0.429104E-08  0.397E-04    1.89      50.4  T
     SCC iter.                  ...        0 min,  0.015 sec
     gradient                   ...        0 min,  0.013 sec
 * total energy  :   -70.4564407 Eh     change       -0.1685597E+02 Eh
   gradient norm :    20.7100430 Eh/α   predicted    -0.1312678E+02 ( -22.12%)
   displ. norm   :     0.9989830 α      lambda       -0.2068505E+02
   maximum displ.:     0.9957604 α      in ANC's #1, #2, #13, ...

........................................................................
.............................. CYCLE    4 ..............................
........................................................................

 iter      E             dE          RMSdq      gap      omega  full diag
   1    -42.2500953 -0.422501E+02  0.169E+00    1.13       0.0  T
   2    -42.2421661  0.792923E-02  0.132E+00    0.67       1.0  T
   3    -42.2347609  0.740523E-02  0.977E-01    1.25       1.0  T
   4    -42.2614617 -0.267008E-01  0.332E-01    0.85       1.0  T
   5    -42.2631868 -0.172515E-02  0.172E-01    0.94       1.0  T
   6    -42.2638123 -0.625465E-03  0.609E-02    0.90       1.0  T
   7    -42.2638782 -0.659007E-04  0.298E-02    0.92       1.0  T
   8    -42.2638950 -0.167930E-04  0.133E-02    0.91       1.5  T
   9    -42.2638985 -0.350175E-05  0.476E-03    0.91       4.2  T
  10    -42.2638990 -0.506575E-06  0.206E-03    0.91       9.7  T
  11    -42.2638990  0.124479E-07  0.115E-03    0.91      17.3  T
  12    -42.2638990 -0.428528E-07  0.321E-04    0.91      62.4  T
  13    -42.2638990 -0.117875E-08  0.136E-04    0.91     146.9  T
     SCC iter.                  ...        0 min,  0.018 sec
     gradient                   ...        0 min,  0.013 sec
 * total energy  :   -95.1942301 Eh     change       -0.2473779E+02 Eh
   gradient norm :    28.8529333 Eh/α   predicted    -0.2066411E+02 ( -16.47%)
   displ. norm   :     0.9987380 α      lambda       -0.2881109E+02
   maximum displ.:     0.9924278 α      in ANC's #1, #2, #11, ...

........................................................................
.............................. CYCLE    5 ..............................
........................................................................

 iter      E             dE          RMSdq      gap      omega  full diag
   1    -42.0069149 -0.420069E+02  0.284E+00    0.14       0.0  T
   2    -40.8582547  0.114866E+01  0.570E+00    0.20       1.0  T
   3    -42.1023623 -0.124411E+01  0.159E+00    0.23       1.0  T
   4    -42.1354542 -0.330920E-01  0.120E+00    0.32       1.0  T
   5    -42.1720456 -0.365914E-01  0.490E-01    0.20       1.0  T
   6    -42.1764071 -0.436147E-02  0.192E-01    0.21       1.0  T
   7    -42.1771460 -0.738960E-03  0.806E-02    0.24       1.0  T
   8    -42.1772441 -0.980669E-04  0.411E-02    0.23       1.0  T
   9    -42.1772615 -0.173970E-04  0.202E-02    0.22       1.0  T
  10    -42.1772719 -0.104335E-04  0.913E-03    0.22       2.2  T
  11    -42.1772736 -0.162067E-05  0.360E-03    0.23       5.6  T
  12    -42.1772738 -0.257053E-06  0.163E-03    0.23      12.3  T
  13    -42.1772738 -0.219136E-07  0.534E-04    0.23      37.5  T
  14    -42.1772738 -0.603982E-08  0.247E-04    0.23      81.1  T
     SCC iter.                  ...        0 min,  0.019 sec
     gradient                   ...        0 min,  0.013 sec
 * total energy  :  -120.9590490 Eh     change       -0.2576482E+02 Eh
   gradient norm :     5.7584373 Eh/α   predicted    -0.2877483E+02 (  11.68%)
   displ. norm   :     0.7725844 α      lambda       -0.3034685E+01
   maximum displ.:     0.4431795 α      in ANC's #2, #11, #36, ...

........................................................................
.............................. CYCLE    6 ..............................
........................................................................

 iter      E             dE          RMSdq      gap      omega  full diag
   1    -41.9873155 -0.419873E+02  0.271E+00    0.36       0.0  T
   2    -41.5127767  0.474539E+00  0.429E+00    0.53       1.0  T
   3    -42.1812417 -0.668465E+00  0.141E+00    0.16       1.0  T
   4    -42.1009212  0.803205E-01  0.187E+00    0.03       1.0  T
   5    -42.2201664 -0.119245E+00  0.573E-01    0.26       1.0  T
   6    -42.2203830 -0.216589E-03  0.359E-01    0.33       1.0  T
   7    -42.2246215 -0.423847E-02  0.898E-02    0.30       1.0  T
   8    -42.2247984 -0.176936E-03  0.315E-02    0.29       1.0  T
   9    -42.2247566  0.417961E-04  0.357E-02    0.30       1.0  T
  10    -42.2248065 -0.498859E-04  0.131E-02    0.30       1.5  T
  11    -42.2248126 -0.611250E-05  0.351E-03    0.30       5.7  T
  12    -42.2248129 -0.260381E-06  0.123E-03    0.30      16.2  T
  13    -42.2248129 -0.328990E-07  0.617E-04    0.30      32.4  T
  14    -42.2248129 -0.496895E-08  0.326E-04    0.30      61.4  T
     SCC iter.                  ...        0 min,  0.019 sec
     gradient                   ...        0 min,  0.013 sec
 * total energy  :  -117.1094292 Eh     change        0.3849620E+01 Eh
   gradient norm :    26.1452941 Eh/α   predicted    -0.2423032E+01 (-162.94%)
   displ. norm   :     0.3576237 α      lambda       -0.7492179E+01
   maximum displ.:     0.1888661 α      in ANC's #24, #2, #9, ...

........................................................................
.............................. CYCLE    7 ..............................
........................................................................

 iter      E             dE          RMSdq      gap      omega  full diag
   1    -42.2535435 -0.422535E+02  0.697E-01    0.28       0.0  T
   2    -42.1477531  0.105790E+00  0.175E+00    0.27       1.0  T
   3    -42.2621371 -0.114384E+00  0.347E-01    0.33       1.0  T
   4    -42.2564543  0.568278E-02  0.365E-01    0.35       1.0  T
   5    -42.2614854 -0.503111E-02  0.214E-01    0.34       1.0  T
   6    -42.2633548 -0.186936E-02  0.194E-02    0.35       1.0  T
   7    -42.2633556 -0.840328E-06  0.137E-02    0.35       1.5  T
   8    -42.2633595 -0.390443E-05  0.601E-03    0.35       3.3  T
   9    -42.2633601 -0.569233E-06  0.355E-03    0.35       5.6  T
  10    -42.2633605 -0.396137E-06  0.130E-03    0.35      15.4  T
  11    -42.2633605 -0.547868E-08  0.689E-04    0.35      29.0  T
  12    -42.2633605 -0.160401E-07  0.272E-04    0.35      73.6  T
     SCC iter.                  ...        0 min,  0.016 sec
     gradient                   ...        0 min,  0.013 sec
 * total energy  :  -121.4771064 Eh     change       -0.4367677E+01 Eh
   gradient norm :     3.2030414 Eh/α   predicted    -0.4225194E+01 (  -3.26%)
   displ. norm   :     0.3262245 α      lambda       -0.5174553E+00
   maximum displ.:     0.1711123 α      in ANC's #4, #13, #8, ...

........................................................................
.............................. CYCLE    8 ..............................
........................................................................

 iter      E             dE          RMSdq      gap      omega  full diag
   1    -42.2534927 -0.422535E+02  0.892E-01    0.41       0.0  T
   2    -42.2518470  0.164571E-02  0.747E-01    0.46       1.0  T
   3    -42.2602170 -0.837009E-02  0.374E-01    0.41       1.0  T
   4    -42.2607878 -0.570722E-03  0.330E-01    0.42       1.0  T
   5    -42.2580872  0.270052E-02  0.384E-01    0.47       1.0  T
   6    -42.2638810 -0.579373E-02  0.487E-02    0.44       1.0  T
   7    -42.2639397 -0.587590E-04  0.241E-02    0.44       1.0  T
   8    -42.2639559 -0.161310E-04  0.957E-03    0.45       2.1  T
   9    -42.2639569 -0.106255E-05  0.259E-03    0.45       7.7  T
  10    -42.2639570 -0.932808E-07  0.102E-03    0.45      19.6  T
  11    -42.2639570 -0.110923E-07  0.393E-04    0.45      50.9  T
  12    -42.2639570 -0.932410E-09  0.213E-04    0.45      93.8  T
     SCC iter.                  ...        0 min,  0.017 sec
     gradient                   ...        0 min,  0.013 sec
 * total energy  :  -121.2913907 Eh     change        0.1857157E+00 Eh
   gradient norm :    15.4950458 Eh/α   predicted    -0.2862624E+00 (-254.14%)
   displ. norm   :     0.2524130 α      lambda       -0.8986879E+00
   maximum displ.:     0.1180842 α      in ANC's #4, #13, #22, ...

........................................................................
.............................. CYCLE    9 ..............................
........................................................................

 iter      E             dE          RMSdq      gap      omega  full diag
   1    -42.2703404 -0.422703E+02  0.523E-01    0.45       0.0  T
   2    -42.2617133  0.862709E-02  0.625E-01    0.35       1.0  T
   3    -42.2671344 -0.542111E-02  0.437E-01    0.41       1.0  T
   4    -42.2721575 -0.502307E-02  0.221E-01    0.41       1.0  T
   5    -42.2729095 -0.752025E-03  0.109E-01    0.41       1.0  T
   6    -42.2734449 -0.535375E-03  0.488E-02    0.45       1.0  T
   7    -42.2735133 -0.683824E-04  0.156E-02    0.44       1.3  T
   8    -42.2735199 -0.665036E-05  0.596E-03    0.44       3.4  T
   9    -42.2735203 -0.318487E-06  0.133E-03    0.44      15.1  T
  10    -42.2735203 -0.125738E-07  0.765E-04    0.44      26.1  T
  11    -42.2735203 -0.381729E-08  0.281E-04    0.44      71.1  T
     SCC iter.                  ...        0 min,  0.015 sec
     gradient                   ...        0 min,  0.013 sec
 * total energy  :  -121.5660843 Eh     change       -0.2746936E+00 Eh
   gradient norm :     5.7444088 Eh/α   predicted    -0.4779731E+00 (  74.00%)
   displ. norm   :     0.3013462 α      lambda       -0.5238889E+00
   maximum displ.:     0.1317701 α      in ANC's #11, #24, #9, ...

........................................................................
.............................. CYCLE   10 ..............................
........................................................................

 iter      E             dE          RMSdq      gap      omega  full diag
   1    -42.2520949 -0.422521E+02  0.532E-01    0.41       0.0  T
   2    -42.2265226  0.255723E-01  0.957E-01    0.18       1.0  T
   3    -42.2604265 -0.339039E-01  0.294E-01    0.42       1.0  T
   4    -42.2562249  0.420158E-02  0.382E-01    0.46       1.0  T
   5    -42.2583547 -0.212972E-02  0.287E-01    0.39       1.0  T
   6    -42.2609599 -0.260522E-02  0.501E-02    0.43       1.0  T
   7    -42.2610205 -0.605792E-04  0.190E-02    0.44       1.1  T
   8    -42.2610276 -0.711587E-05  0.775E-03    0.43       2.6  T
   9    -42.2610288 -0.120120E-05  0.289E-03    0.44       6.9  T
  10    -42.2610289 -0.167417E-06  0.125E-03    0.44      16.0  T
  11    -42.2610290 -0.161767E-07  0.456E-04    0.44      43.9  T
  12    -42.2610290 -0.459823E-08  0.145E-04    0.44     137.7  T
     SCC iter.                  ...        0 min,  0.016 sec
     gradient                   ...        0 min,  0.013 sec
 * total energy  :  -121.6255714 Eh     change       -0.5948706E-01 Eh
   gradient norm :     4.9672751 Eh/α   predicted    -0.2857315E+00 ( 380.33%)
   displ. norm   :     0.1275378 α      lambda       -0.2758554E+00
   maximum displ.:     0.0693635 α      in ANC's #2, #9, #1, ...

........................................................................
.............................. CYCLE   11 ..............................
........................................................................

 iter      E             dE          RMSdq      gap      omega  full diag
   1    -42.2721389 -0.422721E+02  0.282E-01    0.43       0.0  T
   2    -42.2722659 -0.127035E-03  0.165E-01    0.43       1.0  T
   3    -42.2722685 -0.261881E-05  0.157E-01    0.43       1.0  T
   4    -42.2724421 -0.173544E-03  0.888E-02    0.44       1.0  T
   5    -42.2727635 -0.321468E-03  0.199E-02    0.43       1.0  T
   6    -42.2727484  0.151787E-04  0.269E-02    0.44       1.0  T
   7    -42.2727771 -0.286987E-04  0.614E-03    0.43       3.3  T
   8    -42.2727776 -0.513971E-06  0.305E-03    0.43       6.6  T
   9    -42.2727777 -0.146248E-06  0.797E-04    0.43      25.1  T
  10    -42.2727777 -0.548366E-08  0.354E-04    0.43      56.4  T
     SCC iter.                  ...        0 min,  0.014 sec
     gradient                   ...        0 min,  0.013 sec
 * total energy  :  -121.6799924 Eh     change       -0.5442107E-01 Eh
   gradient norm :     3.4858722 Eh/α   predicted    -0.1401718E+00 ( 157.57%)
   displ. norm   :     0.0709279 α      lambda       -0.4781429E-01
   maximum displ.:     0.0268266 α      in ANC's #32, #22, #13, ...

........................................................................
.............................. CYCLE   12 ..............................
........................................................................

 iter      E             dE          RMSdq      gap      omega  full diag
   1    -42.2777516 -0.422778E+02  0.138E-01    0.43       0.0  T
   2    -42.2770365  0.715129E-03  0.186E-01    0.41       1.0  T
   3    -42.2780746 -0.103812E-02  0.676E-02    0.43       1.0  T
   4    -42.2780139  0.606510E-04  0.680E-02    0.41       1.0  T
   5    -42.2779494  0.645567E-04  0.686E-02    0.44       1.0  T
   6    -42.2781484 -0.198999E-03  0.977E-03    0.42       2.0  T
   7    -42.2781497 -0.126026E-05  0.513E-03    0.42       3.9  T
   8    -42.2781503 -0.640455E-06  0.170E-03    0.42      11.8  T
   9    -42.2781503 -0.461742E-07  0.637E-04    0.42      31.4  T
  10    -42.2781503 -0.379325E-08  0.358E-04    0.42      55.8  T
     SCC iter.                  ...        0 min,  0.014 sec
     gradient                   ...        0 min,  0.013 sec
 * total energy  :  -121.7179158 Eh     change       -0.3792333E-01 Eh
   gradient norm :     1.1949492 Eh/α   predicted    -0.2402874E-01 ( -36.64%)
   displ. norm   :     0.1879744 α      lambda       -0.6346504E-01
   maximum displ.:     0.0749971 α      in ANC's #32, #22, #35, ...

........................................................................
.............................. CYCLE   13 ..............................
........................................................................

 iter      E             dE          RMSdq      gap      omega  full diag
   1    -42.2933447 -0.422933E+02  0.309E-01    0.40       0.0  T
   2    -42.2900531  0.329167E-02  0.411E-01    0.36       1.0  T
   3    -42.2946371 -0.458402E-02  0.154E-01    0.40       1.0  T
   4    -42.2944976  0.139426E-03  0.146E-01    0.40       1.0  T
   5    -42.2949198 -0.422153E-03  0.566E-02    0.39       1.0  T
   6    -42.2949771 -0.572729E-04  0.310E-02    0.40       1.0  T
   7    -42.2950084 -0.313270E-04  0.133E-02    0.40       1.5  T
   8    -42.2950131 -0.471089E-05  0.362E-03    0.40       5.5  T
   9    -42.2950134 -0.257662E-06  0.173E-03    0.40      11.6  T
  10    -42.2950134 -0.313679E-07  0.838E-04    0.40      23.9  T
  11    -42.2950134 -0.553035E-08  0.268E-04    0.40      74.7  T
     SCC iter.                  ...        0 min,  0.015 sec
     gradient                   ...        0 min,  0.013 sec
 * total energy  :  -121.7454697 Eh     change       -0.2755397E-01 Eh
   gradient norm :     2.8612975 Eh/α   predicted    -0.3285416E-01 (  19.24%)
   displ. norm   :     0.0655646 α      lambda       -0.2912753E-01
   maximum displ.:     0.0278075 α      in ANC's #9, #32, #22, ...

........................................................................
.............................. CYCLE   14 ..............................
........................................................................

 iter      E             dE          RMSdq      gap      omega  full diag
   1    -42.2958072 -0.422958E+02  0.982E-02    0.39       0.0  T
   2    -42.2956564  0.150850E-03  0.989E-02    0.39       1.0  T
   3    -42.2957712 -0.114803E-03  0.583E-02    0.39       1.0  T
   4    -42.2958216 -0.504311E-04  0.438E-02    0.39       1.0  T
   5    -42.2958500 -0.284033E-04  0.336E-02    0.38       1.0  T
   6    -42.2958864 -0.363576E-04  0.658E-03    0.39       3.0  T
   7    -42.2958867 -0.323841E-06  0.366E-03    0.39       5.5  T
   8    -42.2958872 -0.456143E-06  0.987E-04    0.39      20.3  T
   9    -42.2958872 -0.844695E-08  0.567E-04    0.39      35.3  T
     SCC iter.                  ...        0 min,  0.013 sec
     gradient                   ...        0 min,  0.013 sec
 * total energy  :  -121.7686192 Eh     change       -0.2314950E-01 Eh
   gradient norm :     1.5068549 Eh/α   predicted    -0.1462659E-01 ( -36.82%)
   displ. norm   :     0.3361050 α      lambda       -0.7006440E-01
   maximum displ.:     0.1368150 α      in ANC's #32, #22, #9, ...

........................................................................
.............................. CYCLE   15 ..............................
........................................................................

 iter      E             dE          RMSdq      gap      omega  full diag
   1    -42.3086596 -0.423087E+02  0.503E-01    0.33       0.0  T
   2    -42.3065463  0.211330E-02  0.497E-01    0.17       1.0  T
   3    -42.3075144 -0.968067E-03  0.293E-01    0.33       1.0  T
   4    -42.3048702  0.264422E-02  0.421E-01    0.14       1.0  T
   5    -42.3100205 -0.515027E-02  0.182E-01    0.28       1.0  T
   6    -42.3110802 -0.105975E-02  0.389E-02    0.29       1.0  T
   7    -42.3111029 -0.226439E-04  0.203E-02    0.30       1.0  T
   8    -42.3111133 -0.103897E-04  0.797E-03    0.30       2.5  T
   9    -42.3111144 -0.113092E-05  0.357E-03    0.30       5.6  T
  10    -42.3111146 -0.235012E-06  0.178E-03    0.30      11.2  T
  11    -42.3111147 -0.789830E-07  0.361E-04    0.30      55.4  T
  12    -42.3111147 -0.759471E-09  0.167E-04    0.30     119.6  T
     SCC iter.                  ...        0 min,  0.016 sec
     gradient                   ...        0 min,  0.013 sec
 * total energy  :  -121.8239913 Eh     change       -0.5537202E-01 Eh
   gradient norm :     0.2596656 Eh/α   predicted    -0.3899012E-01 ( -29.59%)
   displ. norm   :     0.5080309 α      lambda       -0.7183342E-01
   maximum displ.:     0.2049117 α      in ANC's #32, #26, #22, ...

........................................................................
.............................. CYCLE   16 ..............................
........................................................................

 iter      E             dE          RMSdq      gap      omega  full diag
   1    -42.3304036 -0.423304E+02  0.885E-01    0.04       0.0  T
   2    -42.3314441 -0.104044E-02  0.782E-01    0.18       1.0  T
   3    -42.3393463 -0.790226E-02  0.343E-01    0.08       1.0  T
   4    -42.3118217  0.275246E-01  0.863E-01    0.45       1.0  T
   5    -42.3400489 -0.282272E-01  0.135E-01    0.09       1.0  T
   6    -42.3403894 -0.340501E-03  0.985E-02    0.14       1.0  T
   7    -42.3407266 -0.337223E-03  0.374E-02    0.13       1.0  T
   8    -42.3407558 -0.291952E-04  0.167E-02    0.12       1.2  T
   9    -42.3407623 -0.648363E-05  0.472E-03    0.12       4.2  T
  10    -42.3407626 -0.270217E-06  0.261E-03    0.12       7.7  T
  11    -42.3407627 -0.124034E-06  0.682E-04    0.12      29.3  T
  12    -42.3407627  0.128647E-08  0.459E-04    0.12      43.6  T
     SCC iter.                  ...        0 min,  0.016 sec
     gradient                   ...        0 min,  0.013 sec
 * total energy  :  -121.8813126 Eh     change       -0.5732138E-01 Eh
   gradient norm :     0.4385398 Eh/α   predicted    -0.4518638E-01 ( -21.17%)
   displ. norm   :     0.5051843 α      lambda       -0.5244346E-01
   maximum displ.:     0.1978786 α      in ANC's #32, #26, #9, ...

........................................................................
.............................. CYCLE   17 ..............................
........................................................................

 iter      E             dE          RMSdq      gap      omega  full diag
   1    -42.3439869 -0.423440E+02  0.110E+00    0.41       0.0  T
   2    -42.3464506 -0.246362E-02  0.802E-01    0.10       1.0  T
   3    -42.2998847  0.465659E-01  0.141E+00    1.04       1.0  T
   4    -42.3519336 -0.520489E-01  0.845E-01    0.76       1.0  T
   5    -42.3658236 -0.138900E-01  0.486E-01    0.60       1.0  T
   6    -42.3725974 -0.677378E-02  0.825E-02    0.47       1.0  T
   7    -42.3727545 -0.157077E-03  0.377E-02    0.46       1.0  T
   8    -42.3727763 -0.218642E-04  0.199E-02    0.45       1.0  T
   9    -42.3727829 -0.654623E-05  0.888E-03    0.45       2.3  T
  10    -42.3727848 -0.192261E-05  0.303E-03    0.45       6.6  T
  11    -42.3727849 -0.113291E-06  0.174E-03    0.45      11.5  T
  12    -42.3727850 -0.713050E-07  0.456E-04    0.45      43.9  T
  13    -42.3727850 -0.296639E-08  0.183E-04    0.45     109.4  T
     SCC iter.                  ...        0 min,  0.018 sec
     gradient                   ...        0 min,  0.013 sec
 * total energy  :  -121.8983603 Eh     change       -0.1704767E-01 Eh
   gradient norm :     1.0441070 Eh/α   predicted    -0.3291409E-01 (  93.07%)
   displ. norm   :     0.1664633 α      lambda       -0.2577571E-01
   maximum displ.:     0.0678934 α      in ANC's #32, #22, #26, ...

........................................................................
.............................. CYCLE   18 ..............................
........................................................................

 iter      E             dE          RMSdq      gap      omega  full diag
   1    -42.3761595 -0.423762E+02  0.370E-01    0.40       0.0  T
   2    -42.3784949 -0.233545E-02  0.290E-01    0.34       1.0  T
   3    -42.3776254  0.869567E-03  0.212E-01    0.48       1.0  T
   4    -42.3756693  0.195612E-02  0.335E-01    0.26       1.0  T
   5    -42.3796926 -0.402332E-02  0.764E-02    0.37       1.0  T
   6    -42.3798000 -0.107469E-03  0.291E-02    0.38       1.0  T
   7    -42.3798195 -0.194138E-04  0.138E-02    0.38       1.4  T
   8    -42.3798238 -0.437211E-05  0.430E-03    0.39       4.7  T
   9    -42.3798243 -0.497378E-06  0.155E-03    0.39      12.9  T
  10    -42.3798244 -0.416848E-07  0.635E-04    0.39      31.5  T
  11    -42.3798244 -0.419386E-08  0.255E-04    0.39      78.3  T
     SCC iter.                  ...        0 min,  0.015 sec
     gradient                   ...        0 min,  0.013 sec
 * total energy  :  -121.9148071 Eh     change       -0.1644678E-01 Eh
   gradient norm :     0.2645344 Eh/α   predicted    -0.1324525E-01 ( -19.47%)
   displ. norm   :     0.1231071 α      lambda       -0.2451332E-01
   maximum displ.:     0.0579304 α      in ANC's #13, #22, #11, ...

........................................................................
.............................. CYCLE   19 ..............................
........................................................................

 iter      E             dE          RMSdq      gap      omega  full diag
   1    -42.4057708 -0.424058E+02  0.275E-01    0.49       0.0  T
   2    -42.3857361  0.200347E-01  0.706E-01    0.13       1.0  T
   3    -42.4075660 -0.218299E-01  0.140E-01    0.43       1.0  T
   4    -42.4076423 -0.763360E-04  0.997E-02    0.39       1.0  T
   5    -42.4077892 -0.146866E-03  0.286E-02    0.40       1.0  T
   6    -42.4078180 -0.287980E-04  0.994E-03    0.41       2.0  T
   7    -42.4078190 -0.100375E-05  0.640E-03    0.41       3.1  T
   8    -42.4078199 -0.933268E-06  0.236E-03    0.41       8.5  T
   9    -42.4078200 -0.101215E-06  0.761E-04    0.41      26.3  T
  10    -42.4078201 -0.652170E-08  0.297E-04    0.41      67.3  T
     SCC iter.                  ...        0 min,  0.014 sec
     gradient                   ...        0 min,  0.013 sec
 * total energy  :  -121.9360467 Eh     change       -0.2123960E-01 Eh
   gradient norm :     0.3472830 Eh/α   predicted    -0.1244275E-01 ( -41.42%)
   displ. norm   :     0.3805353 α      lambda       -0.6636070E-01
   maximum displ.:     0.1776972 α      in ANC's #11, #13, #20, ...

........................................................................
.............................. CYCLE   20 ..............................
........................................................................

 iter      E             dE          RMSdq      gap      omega  full diag
   1    -42.4623223 -0.424623E+02  0.101E+00    0.94       0.0  T
   2    -42.2680071  0.194315E+00  0.227E+00    0.01       1.0  T
   3    -42.4855268 -0.217520E+00  0.462E-01    0.71       1.0  T
   4    -42.4902381 -0.471130E-02  0.201E-01    0.55       1.0  T
   5    -42.4903787 -0.140629E-03  0.920E-02    0.54       1.0  T
   6    -42.4905918 -0.213104E-03  0.313E-02    0.57       1.0  T
   7    -42.4906155 -0.237236E-04  0.107E-02    0.56       1.9  T
   8    -42.4906160 -0.425967E-06  0.576E-03    0.56       3.5  T
   9    -42.4906164 -0.435521E-06  0.204E-03    0.56       9.8  T
  10    -42.4906165 -0.770969E-07  0.647E-04    0.56      30.9  T
  11    -42.4906165 -0.423078E-08  0.286E-04    0.56      70.0  T
     SCC iter.                  ...        0 min,  0.015 sec
     gradient                   ...        0 min,  0.013 sec
 * total energy  :  -121.9758077 Eh     change       -0.3976101E-01 Eh
   gradient norm :     0.6748356 Eh/α   predicted    -0.3798518E-01 (  -4.47%)
   displ. norm   :     0.1946330 α      lambda       -0.1913872E-01
   maximum displ.:     0.0869476 α      in ANC's #11, #59, #9, ...
 * RMSD in coord.:     0.9237107 α      energy gain  -0.7775996E+02 Eh

generating ANC from model Hessian ...
Using Lindh-Hessian (1995)
 Shifting diagonal of input Hessian by    3.2504062364879687     
 Lowest  eigenvalues of input Hessian
    0.010000    0.000000    0.000000    0.000000    0.000000    0.000000
    0.000000    3.252382    3.254200    3.254421    3.255525    3.260287
    3.261374    3.263737    3.266504    3.269620    3.272774    3.274243
 Highest eigenvalues
    5.342357    5.392702    5.577597    5.736032  131.123241  152.850713


........................................................................
.............................. CYCLE   21 ..............................
........................................................................

 iter      E             dE          RMSdq      gap      omega  full diag
   1    -42.5080780 -0.425081E+02  0.657E-01    0.95       0.0  T
   2    -42.4069945  0.101084E+00  0.160E+00    0.08       1.0  T
   3    -42.5155136 -0.108519E+00  0.386E-01    0.84       1.0  T
   4    -42.5200025 -0.448884E-02  0.140E-01    0.72       1.0  T
   5    -42.5203804 -0.377918E-03  0.447E-02    0.68       1.0  T
   6    -42.5204300 -0.495844E-04  0.117E-02    0.68       1.7  T
   7    -42.5204323 -0.230988E-05  0.362E-03    0.68       5.5  T
   8    -42.5204324 -0.887954E-07  0.145E-03    0.68      13.8  T
   9    -42.5204324 -0.108902E-07  0.703E-04    0.68      28.5  T
  10    -42.5204324 -0.329285E-08  0.355E-04    0.68      56.3  T
     SCC iter.                  ...        0 min,  0.014 sec
     gradient                   ...        0 min,  0.013 sec
 * total energy  :  -121.9881239 Eh     change       -0.1231622E-01 Eh
   gradient norm :     0.2422721 Eh/α   predicted     0.0000000E+00 (-100.00%)
   displ. norm   :     0.9498648 α      lambda       -0.1610691E+00
   maximum displ.:     0.9490484 α      in ANC's #1, #69, #63, ...

........................................................................
.............................. CYCLE   22 ..............................
........................................................................

 iter      E             dE          RMSdq      gap      omega  full diag
   1    -42.5725471 -0.425725E+02  0.145E+00    0.70       0.0  T
   2    -42.5759889 -0.344173E-02  0.106E+00    1.21       1.0  T
   3    -42.4935446  0.824443E-01  0.161E+00    0.19       1.0  T
   4    -42.5955434 -0.101999E+00  0.466E-01    0.95       1.0  T
   5    -42.5996654 -0.412195E-02  0.178E-01    0.81       1.0  T
   6    -42.6002262 -0.560830E-03  0.540E-02    0.79       1.0  T
   7    -42.6002846 -0.584532E-04  0.192E-02    0.79       1.0  T
   8    -42.6002901 -0.544680E-05  0.947E-03    0.80       2.1  T
   9    -42.6002920 -0.193381E-05  0.393E-03    0.80       5.1  T
  10    -42.6002923 -0.281267E-06  0.144E-03    0.80      13.9  T
  11    -42.6002923 -0.147862E-07  0.471E-04    0.80      42.4  T
  12    -42.6002923 -0.226154E-08  0.173E-04    0.80     115.8  T
     SCC iter.                  ...        0 min,  0.016 sec
     gradient                   ...        0 min,  0.013 sec
 * total energy  :   -97.1000394 Eh     change        0.2488808E+02 Eh
   gradient norm :    30.1279412 Eh/α   predicted    -0.1532178E+00 (-100.62%)
   displ. norm   :     0.5957786 α      lambda       -0.1793709E+02
   maximum displ.:     0.5889604 α      in ANC's #1, #63, #46, ...

........................................................................
.............................. CYCLE   23 ..............................
........................................................................

 iter      E             dE          RMSdq      gap      omega  full diag
   1    -42.4609279 -0.424609E+02  0.192E+00    0.67       0.0  T
   2    -42.5364317 -0.755038E-01  0.108E+00    0.68       1.0  T
   3    -42.5516032 -0.151714E-01  0.573E-01    0.92       1.0  T
   4    -42.5367438  0.148594E-01  0.824E-01    0.42       1.0  T
   5    -42.5582820 -0.215382E-01  0.195E-01    0.74       1.0  T
   6    -42.5571845  0.109753E-02  0.181E-01    0.65       1.0  T
   7    -42.5583697 -0.118519E-02  0.556E-02    0.71       1.0  T
   8    -42.5584613 -0.916312E-04  0.123E-02    0.72       1.6  T
   9    -42.5584636 -0.227579E-05  0.579E-03    0.72       3.5  T
  10    -42.5584641 -0.491350E-06  0.237E-03    0.73       8.4  T
  11    -42.5584641 -0.769814E-07  0.710E-04    0.73      28.2  T
  12    -42.5584641  0.102857E-08  0.454E-04    0.73      44.1  T
     SCC iter.                  ...        0 min,  0.016 sec
     gradient                   ...        0 min,  0.013 sec
 * total energy  :  -115.2809276 Eh     change       -0.1818089E+02 Eh
   gradient norm :    28.6961847 Eh/α   predicted    -0.1215237E+02 ( -33.16%)
   displ. norm   :     0.9634241 α      lambda       -0.2760063E+02
   maximum displ.:     0.9575292 α      in ANC's #1, #63, #61, ...

........................................................................
.............................. CYCLE   24 ..............................
........................................................................

 iter      E             dE          RMSdq      gap      omega  full diag
   1    -42.1354937 -0.421355E+02  0.284E+00    0.14       0.0  T
   2    -42.0259846  0.109509E+00  0.291E+00    0.08       1.0  T
   3    -42.3361638 -0.310179E+00  0.759E-01    0.46       1.0  T
   4    -42.3370053 -0.841433E-03  0.541E-01    0.41       1.0  T
   5    -42.3364653  0.539937E-03  0.383E-01    0.63       1.0  T
   6    -42.3287136  0.775168E-02  0.572E-01    0.25       1.0  T
   7    -42.3420200 -0.133064E-01  0.670E-02    0.48       1.0  T
   8    -42.3421154 -0.953330E-04  0.274E-02    0.48       1.0  T
   9    -42.3421295 -0.140969E-04  0.138E-02    0.47       1.4  T
  10    -42.3421291  0.367536E-06  0.944E-03    0.47       2.1  T
  11    -42.3421320 -0.290546E-05  0.274E-03    0.47       7.3  T
  12    -42.3421320 -0.389919E-07  0.163E-03    0.47      12.3  T
  13    -42.3421321 -0.772176E-07  0.471E-04    0.47      42.5  T
  14    -42.3421321 -0.479451E-08  0.143E-04    0.47     139.6  T
     SCC iter.                  ...        0 min,  0.019 sec
     gradient                   ...        0 min,  0.013 sec
 * total energy  :  -121.8523969 Eh     change       -0.6571469E+01 Eh
   gradient norm :     1.7944593 Eh/α   predicted    -0.2660957E+02 ( 304.93%)
   displ. norm   :     0.0768755 α      lambda       -0.1095465E+00
   maximum displ.:     0.0529069 α      in ANC's #1, #69, #61, ...

........................................................................
.............................. CYCLE   25 ..............................
........................................................................

 iter      E             dE          RMSdq      gap      omega  full diag
   1    -42.3606969 -0.423607E+02  0.190E-01    0.55       0.0  T
   2    -42.3590384  0.165848E-02  0.221E-01    0.42       1.0  T
   3    -42.3596246 -0.586141E-03  0.202E-01    0.59       1.0  T
   4    -42.3610860 -0.146146E-02  0.657E-02    0.51       1.0  T
   5    -42.3611530 -0.669185E-04  0.171E-02    0.51       1.2  T
   6    -42.3611587 -0.575068E-05  0.530E-03    0.51       3.8  T
   7    -42.3611592 -0.438789E-06  0.229E-03    0.51       8.7  T
   8    -42.3611592 -0.612303E-07  0.108E-03    0.51      18.5  T
   9    -42.3611592 -0.199883E-07  0.398E-04    0.51      50.2  T
  10    -42.3611592 -0.714891E-09  0.176E-04    0.51     113.9  T
     SCC iter.                  ...        0 min,  0.014 sec
     gradient                   ...        0 min,  0.013 sec
 * total energy  :  -121.5301591 Eh     change        0.3222378E+00 Eh
   gradient norm :    15.2638770 Eh/α   predicted    -0.5509688E-01 (-117.10%)
   displ. norm   :     0.0628479 α      lambda       -0.7334729E+00
   maximum displ.:     0.0454251 α      in ANC's #1, #69, #18, ...

........................................................................
.............................. CYCLE   26 ..............................
........................................................................

 iter      E             dE          RMSdq      gap      omega  full diag
   1    -42.3558485 -0.423558E+02  0.177E-01    0.54       0.0  T
   2    -42.3509126  0.493582E-02  0.373E-01    0.35       1.0  T
   3    -42.3563223 -0.540963E-02  0.874E-02    0.53       1.0  T
   4    -42.3565024 -0.180111E-03  0.708E-02    0.47       1.0  T
   5    -42.3566446 -0.142205E-03  0.102E-02    0.50       2.0  T
   6    -42.3566468 -0.225653E-05  0.479E-03    0.50       4.2  T
   7    -42.3566473 -0.485566E-06  0.189E-03    0.50      10.6  T
   8    -42.3566474 -0.419485E-07  0.820E-04    0.50      24.4  T
   9    -42.3566474 -0.110531E-07  0.308E-04    0.50      65.0  T
     SCC iter.                  ...        0 min,  0.013 sec
     gradient                   ...        0 min,  0.013 sec
 * total energy  :  -121.8721956 Eh     change       -0.3420365E+00 Eh
   gradient norm :     0.4589606 Eh/α   predicted    -0.3681878E+00 (   7.65%)
   displ. norm   :     0.0451824 α      lambda       -0.1289799E-01
   maximum displ.:     0.0230659 α      in ANC's #69, #63, #35, ...

........................................................................
.............................. CYCLE   27 ..............................
........................................................................

 iter      E             dE          RMSdq      gap      omega  full diag
   1    -42.3637104 -0.423637E+02  0.108E-01    0.56       0.0  T
   2    -42.3611039  0.260655E-02  0.245E-01    0.41       1.0  T
   3    -42.3638979 -0.279401E-02  0.649E-02    0.54       1.0  T
   4    -42.3639870 -0.890719E-04  0.296E-02    0.53       1.0  T
   5    -42.3640072 -0.202138E-04  0.986E-03    0.52       2.0  T
   6    -42.3640093 -0.215302E-05  0.265E-03    0.52       7.5  T
   7    -42.3640095 -0.129699E-06  0.120E-03    0.52      16.6  T
   8    -42.3640095 -0.484000E-08  0.650E-04    0.52      30.8  T
   9    -42.3640095 -0.603223E-08  0.235E-04    0.52      85.3  T
     SCC iter.                  ...        0 min,  0.012 sec
     gradient                   ...        0 min,  0.013 sec
 * total energy  :  -121.8774514 Eh     change       -0.5255865E-02 Eh
   gradient norm :     1.0407512 Eh/α   predicted    -0.3242781E-02 ( -38.30%)
   displ. norm   :     0.1933572 α      lambda       -0.8194522E-01
   maximum displ.:     0.0818074 α      in ANC's #63, #35, #48, ...

........................................................................
.............................. CYCLE   28 ..............................
........................................................................

 iter      E             dE          RMSdq      gap      omega  full diag
   1    -42.3893374 -0.423893E+02  0.472E-01    0.79       0.0  T
   2    -42.3587350  0.306024E-01  0.847E-01    0.24       1.0  T
   3    -42.3876252 -0.288902E-01  0.442E-01    0.82       1.0  T
   4    -42.3930515 -0.542623E-02  0.188E-01    0.71       1.0  T
   5    -42.3939578 -0.906327E-03  0.426E-02    0.65       1.0  T
   6    -42.3939950 -0.372299E-04  0.140E-02    0.64       1.4  T
   7    -42.3939994 -0.439658E-05  0.571E-03    0.64       3.5  T
   8    -42.3939995 -0.122697E-06  0.311E-03    0.64       6.4  T
   9    -42.3939997 -0.138085E-06  0.124E-03    0.64      16.2  T
  10    -42.3939997 -0.975799E-08  0.518E-04    0.64      38.6  T
  11    -42.3939997 -0.336719E-08  0.273E-04    0.64      73.3  T
     SCC iter.                  ...        0 min,  0.015 sec
     gradient                   ...        0 min,  0.013 sec
 * total energy  :  -121.8934120 Eh     change       -0.1596061E-01 Eh
   gradient norm :     2.1513135 Eh/α   predicted    -0.1481804E-01 (  -7.16%)
   displ. norm   :     0.2093851 α      lambda       -0.1489107E+00
   maximum displ.:     0.1016224 α      in ANC's #63, #35, #48, ...

........................................................................
.............................. CYCLE   29 ..............................
........................................................................

 iter      E             dE          RMSdq      gap      omega  full diag
   1    -42.4141076 -0.424141E+02  0.516E-01    0.92       0.0  T
   2    -42.3957455  0.183621E-01  0.696E-01    0.42       1.0  T
   3    -42.4080700 -0.123245E-01  0.583E-01    1.04       1.0  T
   4    -42.4179239 -0.985389E-02  0.246E-01    0.87       1.0  T
   5    -42.4194021 -0.147825E-02  0.676E-02    0.79       1.0  T
   6    -42.4195022 -0.100043E-03  0.149E-02    0.78       1.3  T
   7    -42.4195051 -0.297370E-05  0.792E-03    0.78       2.5  T
   8    -42.4195058 -0.661485E-06  0.406E-03    0.78       4.9  T
   9    -42.4195060 -0.168053E-06  0.171E-03    0.78      11.7  T
  10    -42.4195060 -0.252038E-07  0.746E-04    0.78      26.8  T
  11    -42.4195060 -0.973812E-08  0.301E-04    0.78      66.4  T
     SCC iter.                  ...        0 min,  0.015 sec
     gradient                   ...        0 min,  0.013 sec
 * total energy  :  -121.9127915 Eh     change       -0.1937949E-01 Eh
   gradient norm :     0.4112159 Eh/α   predicted    -0.2027298E-01 (   4.61%)
   displ. norm   :     0.1546275 α      lambda       -0.5197722E-01
   maximum displ.:     0.0689783 α      in ANC's #35, #63, #18, ...

........................................................................
.............................. CYCLE   30 ..............................
........................................................................

 iter      E             dE          RMSdq      gap      omega  full diag
   1    -42.4356925 -0.424357E+02  0.341E-01    0.98       0.0  T
   2    -42.4255171  0.101754E-01  0.520E-01    0.59       1.0  T
   3    -42.4346414 -0.912432E-02  0.346E-01    1.01       1.0  T
   4    -42.4379112 -0.326982E-02  0.145E-01    0.92       1.0  T
   5    -42.4383972 -0.486046E-03  0.441E-02    0.87       1.0  T
   6    -42.4384331 -0.358092E-04  0.102E-02    0.86       2.0  T
   7    -42.4384346 -0.156794E-05  0.513E-03    0.86       3.9  T
   8    -42.4384349 -0.240753E-06  0.265E-03    0.86       7.6  T
   9    -42.4384350 -0.100177E-06  0.109E-03    0.86      18.4  T
  10    -42.4384350 -0.950906E-08  0.548E-04    0.86      36.5  T
  11    -42.4384350 -0.656580E-08  0.207E-04    0.86      96.7  T
     SCC iter.                  ...        0 min,  0.015 sec
     gradient                   ...        0 min,  0.013 sec
 * total energy  :  -121.9187816 Eh     change       -0.5990036E-02 Eh
   gradient norm :     0.9226320 Eh/α   predicted    -0.5614816E-02 (  -6.26%)
   displ. norm   :     0.0727203 α      lambda       -0.4530240E-01
   maximum displ.:     0.0398556 α      in ANC's #35, #18, #46, ...

........................................................................
.............................. CYCLE   31 ..............................
........................................................................

 iter      E             dE          RMSdq      gap      omega  full diag
   1    -42.4460872 -0.424461E+02  0.128E-01    0.92       0.0  T
   2    -42.4455248  0.562475E-03  0.127E-01    0.82       1.0  T
   3    -42.4454588  0.660089E-04  0.157E-01    0.96       1.0  T
   4    -42.4462054 -0.746672E-03  0.576E-02    0.91       1.0  T
   5    -42.4462713 -0.658689E-04  0.195E-02    0.90       1.0  T
   6    -42.4462806 -0.931021E-05  0.358E-03    0.89       5.6  T
   7    -42.4462806 -0.929807E-08  0.259E-03    0.89       7.7  T
   8    -42.4462808 -0.178369E-06  0.916E-04    0.89      21.8  T
   9    -42.4462808 -0.965796E-08  0.293E-04    0.89      68.3  T
     SCC iter.                  ...        0 min,  0.012 sec
     gradient                   ...        0 min,  0.013 sec
 * total energy  :  -121.9269141 Eh     change       -0.8132521E-02 Eh
   gradient norm :     0.7973871 Eh/α   predicted    -0.4174019E-02 ( -48.67%)
   displ. norm   :     0.2832665 α      lambda       -0.3292505E+00
   maximum displ.:     0.1477814 α      in ANC's #35, #18, #46, ...

........................................................................
.............................. CYCLE   32 ..............................
........................................................................

 iter      E             dE          RMSdq      gap      omega  full diag
   1    -42.4647924 -0.424648E+02  0.464E-01    0.97       0.0  T
   2    -42.4629560  0.183638E-02  0.376E-01    0.83       1.0  T
   3    -42.4611810  0.177500E-02  0.442E-01    1.13       1.0  T
   4    -42.4665408 -0.535981E-02  0.127E-01    0.92       1.0  T
   5    -42.4665910 -0.501666E-04  0.921E-02    0.98       1.0  T
   6    -42.4668644 -0.273442E-03  0.164E-02    0.95       1.2  T
   7    -42.4668666 -0.221041E-05  0.908E-03    0.95       2.2  T
   8    -42.4668678 -0.118722E-05  0.221E-03    0.95       9.0  T
   9    -42.4668679 -0.440850E-07  0.102E-03    0.95      19.6  T
  10    -42.4668679  0.924913E-10  0.514E-04    0.95      38.9  T
  11    -42.4668679 -0.672634E-08  0.196E-04    0.95     102.1  T
     SCC iter.                  ...        0 min,  0.015 sec
     gradient                   ...        0 min,  0.013 sec
 * total energy  :  -121.9574013 Eh     change       -0.3048718E-01 Eh
   gradient norm :     0.2132064 Eh/α   predicted    -0.3021325E-01 (  -0.90%)
   displ. norm   :     0.4042353 α      lambda       -0.3188480E+00
   maximum displ.:     0.2243042 α      in ANC's #35, #18, #46, ...

........................................................................
.............................. CYCLE   33 ..............................
........................................................................

 iter      E             dE          RMSdq      gap      omega  full diag
   1    -42.4916684 -0.424917E+02  0.519E-01    1.08       0.0  T
   2    -42.4845256  0.714276E-02  0.491E-01    0.81       1.0  T
   3    -42.4834544  0.107121E-02  0.577E-01    1.28       1.0  T
   4    -42.4932019 -0.974745E-02  0.153E-01    1.05       1.0  T
   5    -42.4934632 -0.261346E-03  0.541E-02    1.03       1.0  T
   6    -42.4935292 -0.659547E-04  0.178E-02    1.03       1.1  T
   7    -42.4935340 -0.478412E-05  0.940E-03    1.02       2.1  T
   8    -42.4935349 -0.951059E-06  0.327E-03    1.02       6.1  T
   9    -42.4935351 -0.228117E-06  0.166E-03    1.02      12.0  T
  10    -42.4935352 -0.457798E-07  0.694E-04    1.02      28.8  T
  11    -42.4935352 -0.326320E-08  0.298E-04    1.02      67.0  T
     SCC iter.                  ...        0 min,  0.015 sec
     gradient                   ...        0 min,  0.013 sec
 * total energy  :  -121.9754734 Eh     change       -0.1807214E-01 Eh
   gradient norm :     2.1801896 Eh/α   predicted    -0.2651322E-01 (  46.71%)
   displ. norm   :     0.3685339 α      lambda       -0.2598110E+00
   maximum displ.:     0.2063962 α      in ANC's #35, #18, #46, ...

........................................................................
.............................. CYCLE   34 ..............................
........................................................................

 iter      E             dE          RMSdq      gap      omega  full diag
   1    -42.5005396 -0.425005E+02  0.399E-01    1.09       0.0  T
   2    -42.4979463  0.259325E-02  0.364E-01    0.94       1.0  T
   3    -42.4974705  0.475826E-03  0.384E-01    1.23       1.0  T
   4    -42.5006604 -0.318990E-02  0.149E-01    1.01       1.0  T
   5    -42.5014741 -0.813706E-03  0.509E-02    1.08       1.0  T
   6    -42.5015399 -0.657255E-04  0.149E-02    1.07       1.3  T
   7    -42.5015432 -0.334535E-05  0.800E-03    1.07       2.5  T
   8    -42.5015440 -0.804796E-06  0.303E-03    1.06       6.6  T
   9    -42.5015442 -0.160838E-06  0.132E-03    1.06      15.2  T
  10    -42.5015442 -0.263373E-07  0.459E-04    1.06      43.6  T
  11    -42.5015442 -0.226552E-08  0.160E-04    1.06     125.2  T
     SCC iter.                  ...        0 min,  0.015 sec
     gradient                   ...        0 min,  0.013 sec
 * total energy  :  -121.9992764 Eh     change       -0.2380298E-01 Eh
   gradient norm :     0.6973056 Eh/α   predicted    -0.1892806E-01 ( -20.48%)
   displ. norm   :     0.3718756 α      lambda       -0.2051493E+00
   maximum displ.:     0.1986426 α      in ANC's #35, #18, #46, ...

........................................................................
.............................. CYCLE   35 ..............................
........................................................................

 iter      E             dE          RMSdq      gap      omega  full diag
   1    -42.5059339 -0.425059E+02  0.394E-01    1.15       0.0  T
   2    -42.5031891  0.274480E-02  0.352E-01    0.96       1.0  T
   3    -42.5021782  0.101083E-02  0.397E-01    1.29       1.0  T
   4    -42.5067391 -0.456084E-02  0.103E-01    1.09       1.0  T
   5    -42.5069005 -0.161474E-03  0.338E-02    1.11       1.0  T
   6    -42.5069229 -0.223913E-04  0.149E-02    1.11       1.3  T
   7    -42.5069281 -0.517475E-05  0.620E-03    1.11       3.2  T
   8    -42.5069286 -0.477332E-06  0.120E-03    1.11      16.7  T
   9    -42.5069286 -0.127469E-07  0.656E-04    1.11      30.5  T
  10    -42.5069286 -0.199099E-08  0.301E-04    1.11      66.5  T
     SCC iter.                  ...        0 min,  0.014 sec
     gradient                   ...        0 min,  0.013 sec
 * total energy  :  -122.0171251 Eh     change       -0.1784868E-01 Eh
   gradient norm :     0.6477079 Eh/α   predicted    -0.1422106E-01 ( -20.32%)
   displ. norm   :     0.3302012 α      lambda       -0.2034814E+00
   maximum displ.:     0.1540494 α      in ANC's #35, #18, #46, ...

........................................................................
.............................. CYCLE   36 ..............................
........................................................................

 iter      E             dE          RMSdq      gap      omega  full diag
   1    -42.5045645 -0.425046E+02  0.428E-01    1.25       0.0  T
   2    -42.4996515  0.491295E-02  0.453E-01    0.97       1.0  T
   3    -42.5025594 -0.290793E-02  0.364E-01    1.35       1.0  T
   4    -42.5063938 -0.383437E-02  0.111E-01    1.17       1.0  T
   5    -42.5064987 -0.104881E-03  0.330E-02    1.18       1.0  T
   6    -42.5065220 -0.233132E-04  0.119E-02    1.18       1.7  T
   7    -42.5065248 -0.276177E-05  0.524E-03    1.17       3.8  T
   8    -42.5065249 -0.145282E-06  0.188E-03    1.17      10.6  T
   9    -42.5065250 -0.771372E-07  0.585E-04    1.17      34.2  T
  10    -42.5065250 -0.135304E-08  0.344E-04    1.17      58.1  T
     SCC iter.                  ...        0 min,  0.014 sec
     gradient                   ...        0 min,  0.013 sec
 * total energy  :  -122.0283870 Eh     change       -0.1126193E-01 Eh
   gradient norm :     0.8583789 Eh/α   predicted    -0.1181016E-01 (   4.87%)
   displ. norm   :     0.2914918 α      lambda       -0.1338308E+00
   maximum displ.:     0.1371801 α      in ANC's #35, #46, #18, ...

........................................................................
.............................. CYCLE   37 ..............................
........................................................................

 iter      E             dE          RMSdq      gap      omega  full diag
   1    -42.4997772 -0.424998E+02  0.313E-01    1.20       0.0  T
   2    -42.5000466 -0.269434E-03  0.194E-01    1.19       1.0  T
   3    -42.4999512  0.954066E-04  0.144E-01    1.25       1.0  T
   4    -42.4988749  0.107631E-02  0.181E-01    1.10       1.0  T
   5    -42.5002567 -0.138176E-02  0.280E-02    1.22       1.0  T
   6    -42.5002808 -0.241268E-04  0.827E-03    1.21       2.4  T
   7    -42.5002818 -0.102909E-05  0.303E-03    1.21       6.6  T
   8    -42.5002820 -0.118470E-06  0.132E-03    1.21      15.1  T
   9    -42.5002820 -0.324945E-07  0.473E-04    1.21      42.3  T
  10    -42.5002820 -0.194269E-08  0.246E-04    1.21      81.4  T
     SCC iter.                  ...        0 min,  0.014 sec
     gradient                   ...        0 min,  0.013 sec
 * total energy  :  -122.0278137 Eh     change        0.5732621E-03 Eh
   gradient norm :     1.4655834 Eh/α   predicted    -0.6538949E-02 (*******%)
   displ. norm   :     0.0758224 α      lambda       -0.7818086E-01
   maximum displ.:     0.0471400 α      in ANC's #35, #18, #48, ...

........................................................................
.............................. CYCLE   38 ..............................
........................................................................

 iter      E             dE          RMSdq      gap      omega  full diag
   1    -42.5099353 -0.425099E+02  0.155E-01    1.34       0.0  T
   2    -42.5054052  0.453004E-02  0.367E-01    1.04       1.0  T
   3    -42.5108143 -0.540904E-02  0.510E-02    1.24       1.0  T
   4    -42.5108121  0.214202E-05  0.340E-02    1.24       1.0  T
   5    -42.5108167 -0.456212E-05  0.155E-02    1.24       1.3  T
   6    -42.5108239 -0.717825E-05  0.526E-03    1.24       3.8  T
   7    -42.5108245 -0.593112E-06  0.254E-03    1.24       7.9  T
   8    -42.5108246 -0.154216E-06  0.546E-04    1.24      36.6  T
   9    -42.5108246 -0.968729E-08  0.187E-04    1.24     107.1  T
     SCC iter.                  ...        0 min,  0.012 sec
     gradient                   ...        0 min,  0.013 sec
 * total energy  :  -122.0371309 Eh     change       -0.9317181E-02 Eh
   gradient norm :     0.4181528 Eh/α   predicted    -0.7041466E-02 ( -24.42%)
   displ. norm   :     0.1471999 α      lambda       -0.1013869E+00
   maximum displ.:     0.0910693 α      in ANC's #35, #48, #18, ...

........................................................................
.............................. CYCLE   39 ..............................
........................................................................

 iter      E             dE          RMSdq      gap      omega  full diag
   1    -42.5310856 -0.425311E+02  0.289E-01    1.49       0.0  T
   2    -42.5179146  0.131710E-01  0.640E-01    0.97       1.0  T
   3    -42.5340570 -0.161424E-01  0.953E-02    1.31       1.0  T
   4    -42.5340347  0.223629E-04  0.588E-02    1.30       1.0  T
   5    -42.5340469 -0.121937E-04  0.262E-02    1.30       1.0  T
   6    -42.5340687 -0.217921E-04  0.109E-02    1.31       1.8  T
   7    -42.5340718 -0.309902E-05  0.416E-03    1.31       4.8  T
   8    -42.5340721 -0.354006E-06  0.114E-03    1.31      17.5  T
   9    -42.5340722 -0.422682E-07  0.384E-04    1.31      52.0  T
  10    -42.5340722 -0.321939E-08  0.208E-04    1.31      96.3  T
     SCC iter.                  ...        0 min,  0.014 sec
     gradient                   ...        0 min,  0.013 sec
 * total energy  :  -122.0468055 Eh     change       -0.9674633E-02 Eh
   gradient norm :     0.2407548 Eh/α   predicted    -0.7062455E-02 ( -27.00%)
   displ. norm   :     0.1875668 α      lambda       -0.7688370E-01
   maximum displ.:     0.1173634 α      in ANC's #35, #48, #18, ...

........................................................................
.............................. CYCLE   40 ..............................
........................................................................

 iter      E             dE          RMSdq      gap      omega  full diag
   1    -42.5577595 -0.425578E+02  0.310E-01    1.58       0.0  T
   2    -42.5487245  0.903505E-02  0.567E-01    1.08       1.0  T
   3    -42.5606490 -0.119245E-01  0.116E-01    1.40       1.0  T
   4    -42.5606105  0.384092E-04  0.661E-02    1.38       1.0  T
   5    -42.5606431 -0.325790E-04  0.308E-02    1.38       1.0  T
   6    -42.5606659 -0.227798E-04  0.105E-02    1.39       1.9  T
   7    -42.5606688 -0.285859E-05  0.395E-03    1.39       5.1  T
   8    -42.5606690 -0.203244E-06  0.126E-03    1.39      15.9  T
   9    -42.5606690 -0.409305E-07  0.527E-04    1.39      38.0  T
  10    -42.5606690 -0.771438E-08  0.186E-04    1.39     107.2  T
     SCC iter.                  ...        0 min,  0.014 sec
     gradient                   ...        0 min,  0.013 sec
 * total energy  :  -122.0519936 Eh     change       -0.5188044E-02 Eh
   gradient norm :     0.6666628 Eh/α   predicted    -0.4847696E-02 (  -6.56%)
   displ. norm   :     0.1043008 α      lambda       -0.6254211E-01
   maximum displ.:     0.0501565 α      in ANC's #46, #35, #16, ...

........................................................................
.............................. CYCLE   41 ..............................
........................................................................

 iter      E             dE          RMSdq      gap      omega  full diag
   1    -42.5668567 -0.425669E+02  0.180E-01    1.40       0.0  T
   2    -42.5669153 -0.586156E-04  0.171E-01    1.40       1.0  T
   3    -42.5674242 -0.508849E-03  0.693E-02    1.40       1.0  T
   4    -42.5673850  0.392232E-04  0.431E-02    1.42       1.0  T
   5    -42.5674044 -0.194536E-04  0.281E-02    1.39       1.0  T
   6    -42.5674327 -0.282916E-04  0.528E-03    1.40       3.8  T
   7    -42.5674332 -0.453910E-06  0.258E-03    1.40       7.7  T
   8    -42.5674332 -0.534592E-07  0.106E-03    1.40      18.8  T
   9    -42.5674332 -0.119481E-07  0.311E-04    1.40      64.3  T
  10    -42.5674332 -0.203627E-09  0.205E-04    1.40      97.5  T
     SCC iter.                  ...        0 min,  0.014 sec
     gradient                   ...        0 min,  0.013 sec
 * total energy  :  -122.0562899 Eh     change       -0.4296351E-02 Eh
   gradient norm :     0.4335523 Eh/α   predicted    -0.3877553E-02 (  -9.75%)
   displ. norm   :     0.0985498 α      lambda       -0.6343570E-01
   maximum displ.:     0.0658080 α      in ANC's #46, #68, #18, ...

........................................................................
.............................. CYCLE   42 ..............................
........................................................................

 iter      E             dE          RMSdq      gap      omega  full diag
   1    -42.5710532 -0.425711E+02  0.150E-01    1.34       0.0  T
   2    -42.5705212  0.531969E-03  0.165E-01    1.48       1.0  T
   3    -42.5712811 -0.759886E-03  0.754E-02    1.36       1.0  T
   4    -42.5713738 -0.927116E-04  0.367E-02    1.39       1.0  T
   5    -42.5713894 -0.156481E-04  0.969E-03    1.39       2.1  T
   6    -42.5713913 -0.189382E-05  0.299E-03    1.39       6.7  T
   7    -42.5713914 -0.776275E-07  0.187E-03    1.39      10.7  T
   8    -42.5713915 -0.371178E-07  0.688E-04    1.39      29.1  T
   9    -42.5713915 -0.791257E-08  0.286E-04    1.39      69.9  T
     SCC iter.                  ...        0 min,  0.012 sec
     gradient                   ...        0 min,  0.013 sec
 * total energy  :  -122.0617006 Eh     change       -0.5410653E-02 Eh
   gradient norm :     0.2215682 Eh/α   predicted    -0.3666957E-02 ( -32.23%)
   displ. norm   :     0.1890638 α      lambda       -0.1244723E+00
   maximum displ.:     0.1201518 α      in ANC's #46, #63, #18, ...
 * RMSD in coord.:     0.4947434 α      energy gain  -0.8589289E-01 Eh

generating ANC from model Hessian ...
Using Lindh-Hessian (1995)
 Shifting diagonal of input Hessian by    3.4901492983942153     
 Lowest  eigenvalues of input Hessian
    0.010000    0.000000    0.000000    0.000000    0.000000    0.000000
    0.000000    3.491730    3.493496    3.493863    3.495226    3.495694
    3.500469    3.500574    3.501230    3.504727    3.509631    3.510644
 Highest eigenvalues
    5.593899    5.628247    5.821515    5.892036  126.254267  145.087402


........................................................................
.............................. CYCLE   43 ..............................
........................................................................

 iter      E             dE          RMSdq      gap      omega  full diag
   1    -42.5804816 -0.425805E+02  0.262E-01    1.29       0.0  T
   2    -42.5792207  0.126092E-02  0.267E-01    1.52       1.0  T
   3    -42.5810673 -0.184656E-02  0.133E-01    1.32       1.0  T
   4    -42.5813524 -0.285083E-03  0.835E-02    1.40       1.0  T
   5    -42.5814617 -0.109346E-03  0.250E-02    1.36       1.0  T
   6    -42.5814829 -0.211732E-04  0.418E-03    1.37       4.8  T
   7    -42.5814831 -0.214922E-06  0.213E-03    1.37       9.4  T
   8    -42.5814831 -0.209170E-07  0.580E-04    1.37      34.5  T
   9    -42.5814831 -0.257831E-08  0.296E-04    1.37      67.5  T
     SCC iter.                  ...        0 min,  0.013 sec
     gradient                   ...        0 min,  0.013 sec
 * total energy  :  -122.0696431 Eh     change       -0.7942501E-02 Eh
   gradient norm :     0.5574841 Eh/α   predicted     0.0000000E+00 (-100.00%)
   displ. norm   :     0.9846279 α      lambda       -0.5215991E+00
   maximum displ.:     0.9839725 α      in ANC's #1, #59, #69, ...

........................................................................
.............................. CYCLE   44 ..............................
........................................................................

 iter      E             dE          RMSdq      gap      omega  full diag
   1    -42.3499352 -0.423499E+02  0.191E+00    1.04       0.0  T
   2    -42.3052351  0.447000E-01  0.212E+00    1.86       1.0  T
   3    -42.4328155 -0.127580E+00  0.727E-01    1.68       1.0  T
   4    -42.4326991  0.116422E-03  0.511E-01    1.56       1.0  T
   5    -42.4309188  0.178034E-02  0.374E-01    1.46       1.0  T
   6    -42.4361962 -0.527740E-02  0.421E-02    1.59       1.0  T
   7    -42.4362209 -0.247615E-04  0.196E-02    1.60       1.0  T
   8    -42.4362219 -0.942425E-06  0.766E-03    1.60       2.6  T
   9    -42.4362219 -0.505214E-07  0.642E-03    1.59       3.1  T
  10    -42.4362232 -0.126438E-05  0.236E-03    1.59       8.5  T
  11    -42.4362233 -0.891594E-07  0.120E-03    1.59      16.7  T
  12    -42.4362233 -0.151285E-07  0.479E-04    1.59      41.7  T
  13    -42.4362233 -0.592199E-08  0.155E-04    1.59     129.1  T
     SCC iter.                  ...        0 min,  0.018 sec
     gradient                   ...        0 min,  0.013 sec
 * total energy  :  -114.5123605 Eh     change        0.7557283E+01 Eh
   gradient norm :    29.2461810 Eh/α   predicted    -0.5136430E+00 (-106.80%)
   displ. norm   :     0.6079387 α      lambda       -0.1777763E+02
   maximum displ.:     0.6065434 α      in ANC's #1, #60, #44, ...

........................................................................
.............................. CYCLE   45 ..............................
........................................................................

 iter      E             dE          RMSdq      gap      omega  full diag
   1    -42.5099099 -0.425099E+02  0.128E+00    1.81       0.0  T
   2    -42.4789712  0.309387E-01  0.137E+00    0.91       1.0  T
   3    -42.5249015 -0.459303E-01  0.653E-01    1.82       1.0  T
   4    -42.5336737 -0.877218E-02  0.359E-01    1.37       1.0  T
   5    -42.5348446 -0.117092E-02  0.159E-01    1.49       1.0  T
   6    -42.5354303 -0.585629E-03  0.449E-02    1.46       1.0  T
   7    -42.5354800 -0.497756E-04  0.125E-02    1.48       1.6  T
   8    -42.5354774  0.261154E-05  0.125E-02    1.48       1.6  T
   9    -42.5354814 -0.396504E-05  0.445E-03    1.48       4.5  T
  10    -42.5354818 -0.415149E-06  0.106E-03    1.48      18.9  T
  11    -42.5354818 -0.218187E-08  0.641E-04    1.48      31.2  T
  12    -42.5354818 -0.104784E-07  0.238E-04    1.48      84.0  T
     SCC iter.                  ...        0 min,  0.016 sec
     gradient                   ...        0 min,  0.013 sec
================
 final structure:
================
25
 xtb: 6.6.1 (8d0f1dd)
C            3.21786164340000        1.13591514650000        0.01837059260000
N            2.27034809790000        0.05199982890000        0.00038279530000
C            2.54167221030000       -1.23971668410000       -0.00834188300000
N            1.39367826450000       -1.95088267900000       -0.00850347120000
C            0.35269634020000       -1.06748964300000        0.00059917290000
C            0.90759959010000        0.20069750900000        0.00663590170000
C            0.07590235260000        1.39864294500000       -0.00284827040000
O            0.48715076820000        2.53168346660000       -0.01725767220000
N           -1.27221500230000        1.06666939660000        0.00165480230000
C           -2.23229981500000        2.16656245330000       -0.00245172030000
C           -1.84872931540000       -0.19179276200000        0.00496135950000
O           -3.03273030250000       -0.36103538130000        0.00858583760000
N           -0.96599111670000       -1.30060631840000        0.00174701630000
C           -1.52030655580000       -2.64076660390000       -0.00239033190000
H            3.71480285180000        1.18589984860000        0.98803183970000
H            3.97079415090000        0.99383197990000       -0.75543416370000
H            2.68321036910000        2.07051068580000       -0.15067179540000
H            3.52469367910000       -1.66989040330000       -0.01523639120000
H           -1.67672429040000        3.10039111610000        0.00486339690000
H           -2.85755792270000        2.10547813320000       -0.89185337000000
H           -2.87119733260000        2.09858159720000        0.87661144540000
H           -1.20589108080000       -3.18768007210000        0.88663215920000
H           -1.21982032550000       -3.17678505510000       -0.90288069810000
H           -2.60531402170000       -2.54255916880000        0.00649952960000
H            1.32879827740000       -2.95942079410000       -0.01653446370000

 Bond Distances (Angstroems)
 ---------------------------
C1-N2=1.4398         C1-H15=1.0907        C1-H16=1.0890        C1-H17=1.0899        N2-C1=1.4398         N2-C3=1.3199         
N2-C6=1.3709         C3-N2=1.3199         C3-N4=1.3504         C3-H18=1.0730        N4-C3=1.3504         N4-C5=1.3653         
N4-H25=1.0107        C5-N4=1.3653         C5-C6=1.3843         C5-N13=1.3391        C6-N2=1.3709         C6-C5=1.3843         
C6-C7=1.4584         C7-C6=1.4584         C7-O8=1.2055         C7-N9=1.3884         O8-C7=1.2055         N9-C7=1.3884         
N9-C10=1.4600        N9-C11=1.3842        C10-N9=1.4600        C10-H19=1.0866       C10-H20=1.0889       C10-H21=1.0888       
C11-N9=1.3842        C11-O12=1.1960       C11-N13=1.4173       O12-C11=1.1960       N13-C5=1.3391        N13-C11=1.4173       
N13-C14=1.4503       C14-N13=1.4503       C14-H22=1.0901       C14-H23=1.0902       C14-H24=1.0895       H15-C1=1.0907        
H16-C1=1.0890        H17-C1=1.0899        H18-C3=1.0730        H19-C10=1.0866       H20-C10=1.0889       H21-C10=1.0888       
H22-C14=1.0901       H23-C14=1.0902       H24-C14=1.0895       H25-N4=1.0107        
 C  H  Rav=1.0877 sigma=0.0050  Rmin=1.0730  Rmax=1.0907    10
 C  C  Rav=1.4213 sigma=0.0370  Rmin=1.3843  Rmax=1.4584     2
 N  H  Rav=1.0107 sigma=0.0000  Rmin=1.0107  Rmax=1.0107     1
 N  C  Rav=1.3896 sigma=0.0445  Rmin=1.3199  Rmax=1.4600    11
 O  C  Rav=1.2007 sigma=0.0047  Rmin=1.1960  Rmax=1.2055     2

 selected bond angles (degree)
 --------------------
H15-C1-N2=110.21               H16-C1-N2=110.36               H16-C1-H15=108.82              H17-C1-N2=108.71               
H17-C1-H15=108.79              H17-C1-H16=109.93              C3-N2-C1=126.98                C6-N2-C1=124.92                
C6-N2-C3=108.09                N4-C3-N2=109.91                H18-C3-N2=125.50               H18-C3-N4=124.59               
C5-N4-C3=107.90                H25-N4-C3=125.46               H25-N4-C5=126.64               C6-C5-N4=106.69                
N13-C5-N4=129.66               N13-C5-C6=123.66               C5-C6-N2=107.40                C7-C6-N2=130.99                
C7-C6-C5=121.59                O8-C7-C6=125.28                N9-C7-C6=110.94                N9-C7-O8=123.78                
C10-N9-C7=117.28               C11-N9-C7=128.45               C11-N9-C10=114.27              H19-C10-N9=108.13              
H20-C10-N9=109.73              H20-C10-H19=110.32             H21-C10-N9=109.67              H21-C10-H19=110.38             
H21-C10-H20=108.60             

 selected dihedral angles (degree)
 ---------------------------------
C3-N2-C1-H15=289.54           C3-N2-C1-H16= 49.76           C3-N2-C1-H17=170.39           C6-N2-C1-H15=108.66           
C6-N2-C1-H16=228.88           C6-N2-C1-H17=349.51           N4-C3-N2-C1=179.26            N4-C3-N2-C6=  0.00            
H18-C3-N2-C1=359.21           H18-C3-N2-C6=179.97           C5-N4-C3-N2=  0.00            C5-N4-C3-H18=180.05           
H25-N4-C3-N2=179.85           H25-N4-C3-H18=359.90          C6-C5-N4-C3=  0.00            C6-C5-N4-H25=180.14           
N13-C5-N4-C3=179.88           N13-C5-N4-H25=  0.03          C5-C6-N2-C1=180.71            C5-C6-N2-C3=359.97            
C7-C6-N2-C1=  1.78            C7-C6-N2-C3=181.03            N2-C6-C5-N4=  0.03            N2-C6-C5-N13=180.13           
C7-C6-C5-N4=179.08            C7-C6-C5-N13=359.18           O8-C7-C6-N2=359.91            O8-C7-C6-C5=181.10            
N9-C7-C6-N2=179.67            N9-C7-C6-C5=  0.86            C10-N9-C7-C6=179.81           C10-N9-C7-O8=359.58           
C11-N9-C7-C6=359.56           C11-N9-C7-O8=179.33           H19-C10-N9-C7=359.25          H19-C10-N9-C11=179.46         
H20-C10-N9-C7=119.63          H20-C10-N9-C11=299.84         H21-C10-N9-C7=238.84          H21-C10-N9-C11= 59.06         
           -------------------------------------------------
          |                Final Singlepoint                |
           -------------------------------------------------

          ...................................................
          :                      SETUP                      :
          :.................................................:
          :  # basis functions                  67          :
          :  # atomic orbitals                  67          :
          :  # shells                           39          :
          :  # electrons                        74          :
          :  max. iterations                   250          :
          :  Hamiltonian                  GFN2-xTB          :
          :  restarted?                      false          :
          :  GBSA solvation                  false          :
          :  PC potential                    false          :
          :  electronic temp.         5000.0000000     K    :
          :  accuracy                    1.0000000          :
          :  -> integral cutoff          0.2500000E+02      :
          :  -> integral neglect         0.1000000E-07      :
          :  -> SCF convergence          0.1000000E-05 Eh   :
          :  -> wf. convergence          0.1000000E-03 e    :
          :  Broyden damping             0.4000000          :
          ...................................................

 iter      E             dE          RMSdq      gap      omega  full diag
   1    -42.6140520 -0.426141E+02  0.339E+00    2.19       0.0  T
   2    -42.7451238 -0.131072E+00  0.215E+00    3.61       1.0  T
   3    -42.7760397 -0.309159E-01  0.118E+00    3.32       1.0  T
   4    -42.7765186 -0.478942E-03  0.374E-01    3.41       1.0  T
   5    -42.7789258 -0.240717E-02  0.115E-01    3.31       1.0  T
   6    -42.7790524 -0.126633E-03  0.523E-02    3.34       1.0  T
   7    -42.7790761 -0.236946E-04  0.165E-02    3.34       1.2  T
   8    -42.7790775 -0.138058E-05  0.728E-03    3.34       2.7  T
   9    -42.7790779 -0.391465E-06  0.300E-03    3.34       6.7  T
  10    -42.7790780 -0.547853E-07  0.102E-03    3.34      19.6  T
  11    -42.7790780 -0.717974E-08  0.434E-04    3.34      46.1  T
  12    -42.7790780 -0.960739E-09  0.155E-04    3.34     128.8  T

   *** convergence criteria satisfied after 12 iterations ***

         #    Occupation            Energy/Eh            Energy/eV
      -------------------------------------------------------------
         1        2.0000           -0.9185975             -24.9963
       ...           ...                  ...                  ...
        31        1.9996           -0.6230270             -16.9534
        32        1.9995           -0.6194599             -16.8564
        33        1.9979           -0.5974990             -16.2588
        34        1.9932           -0.5789635             -15.7544
        35        1.9817           -0.5631867             -15.3251
        36        1.9779           -0.5602258             -15.2445
        37        1.9748           -0.5581227             -15.1873 (HOMO)
        38        0.0652           -0.4353570             -11.8467 (LUMO)
        39        0.0099           -0.4050461             -11.0219
        40        0.0013           -0.3732217             -10.1559
        41        0.0000           -0.2886861              -7.8555
        42                         -0.2065799              -5.6213
       ...                                ...                  ...
        67                          0.5625652              15.3082
      -------------------------------------------------------------
                  HL-Gap            0.1227657 Eh            3.3406 eV
             Fermi-level           -0.4890453 Eh          -13.3076 eV

 SCC (total)                   0 d,  0 h,  0 min,  0.035 sec
 SCC setup                      ...        0 min,  0.000 sec (  0.569%)
 Dispersion                     ...        0 min,  0.000 sec (  0.556%)
 classical contributions        ...        0 min,  0.000 sec (  0.206%)
 integral evaluation            ...        0 min,  0.005 sec ( 14.386%)
 iterations                     ...        0 min,  0.016 sec ( 46.992%)
 molecular gradient             ...        0 min,  0.013 sec ( 36.869%)
 printout                       ...        0 min,  0.000 sec (  0.384%)

         :::::::::::::::::::::::::::::::::::::::::::::::::::::
         ::                     SUMMARY                     ::
         :::::::::::::::::::::::::::::::::::::::::::::::::::::
         :: total energy             -44.215844538405 Eh    ::
         :: gradient norm              5.612353803285 Eh/a0 ::
         :: HOMO-LUMO gap              3.340623849803 eV    ::
         ::.................................................::
         :: SCC energy               -42.779077977318 Eh    ::
         :: -> isotropic ES            0.141124394034 Eh    ::
         :: -> anisotropic ES         -0.005230393524 Eh    ::
         :: -> anisotropic XC          0.011966815758 Eh    ::
         :: -> dispersion             -0.022657733568 Eh    ::
         :: repulsion energy           0.531105277918 Eh    ::
         :: add. restraining          -1.967985998015 Eh    ::
         :: total charge               1.000000000002 e     ::
         :::::::::::::::::::::::::::::::::::::::::::::::::::::


last geometry written to: xtblast.xyz

########################################################################
[ERROR] Program stopped due to fatal error
-5- Geometry optimization failed
-4- xtb_geoopt: Trying to recover from failed geometry optimization
-3- xtb_geoopt: Geometry optimization did not converge
-2- optimizer_ancopt: Could not relax structure
-1- optimizer_relax: |grad| > 500, something is totally wrong!
########################################################################
