25
 energy: -42.104334185948 gnorm: 0.003837041065 xtb: 6.6.1 (8d0f1dd)
C            3.21369535990153        1.12580047698452       -0.02321254710974
N            2.28195914039312        0.03024662062410       -0.02845850625354
C            2.57977620024927       -1.26532365145440       -0.07135688843684
N            1.44300313896038       -1.99907424478201       -0.03498765429740
C            0.38711459731567       -1.13963477885629        0.03456019868306
C            0.90982766791048        0.14767214304555        0.03832041341277
C            0.08396067563420        1.31603639551562        0.08881784708606
O            0.43627013791141        2.47376831166131        0.06969515775614
N           -1.30921740322844        0.96614114942142        0.16625175324078
C           -2.18630666089408        1.97586765196802        0.24050804205056
C           -1.84395312104700       -0.35505157781951        0.17779182579231
O           -3.02718883469753       -0.54461837850164        0.24318263530725
N           -0.93303836454539       -1.40749638714809        0.08840431750741
C           -1.43350677770789       -2.77001444056000        0.09891101253776
H            3.72160023651391        1.18553286665914        0.94080962961541
H            3.95904538222836        0.99128294322322       -0.80570651194808
H            2.66716882477911        2.05351406680350       -0.18833235072948
H            3.56920691280351       -1.67311685986711       -0.12591346454241
H           -1.79654710256156        2.97892661663553        0.24728821243031
H           -3.00442119411805        4.29752702313315       -1.67296510518587
H           -3.23614628385667        1.75356792432764        0.29623528088537
H           -1.08836207860064       -3.29456189071416        0.99051075587380
H           -1.11192521218747       -3.29727239887795       -0.79800981723551
H           -2.52126656247232       -2.72358328450551        0.11390515101969
H            1.39968283541613       -3.00789775531617       -0.05507776955962
