72
 energy: 0.000000000000 xtb: 6.6.1 (8d0f1dd)
N           -1.47310921155849        2.74401293103706        2.22063921685122
C           -1.55658879776851        2.16490285539332        1.13274273951491
C           -2.74549199786261        2.05621232186130        0.23826248438941
C           -3.31377553111525        0.64333411542669        0.32332512650568
C           -4.30230156009016        0.24487110156316       -0.58026161703006
C           -4.85238763031941       -1.02286490450319       -0.53363588718165
O           -5.81419972815119       -1.48606034185536       -1.36157882725342
C           -6.39655633239252       -0.60827000183299       -2.29568474302620
C           -4.39972501531283       -1.94646102182611        0.44396929121966
O           -4.98748311285188       -3.16145997157803        0.41085992006324
C           -4.66362127904578       -4.10093827755394        1.40909127743729
C           -3.42072513477031       -1.54561384810496        1.33436546260297
C           -2.88302799614223       -0.26315800396994        1.27400150770375
C           -2.19303798107274        2.30467000305896       -1.18742977106749
C           -1.26651538239283        1.17243369445008       -1.65249429687285
C            0.01082524939134        1.09745454476277       -0.89354803499847
N            0.61779393476578       -0.02034948052406       -0.57705522512502
C            2.00145210352228       -0.02376006389122       -0.15611399603240
C            2.92554934655222       -0.53865282675074       -1.27700088804721
C            4.35756843073516       -0.43050757231754       -0.83075544324989
C            5.07346135469827        0.73206409086248       -1.03980965825901
C            6.38627986649936        0.84224441421807       -0.60344822702769
C            7.00047264773336       -0.20824756335880        0.05722314418200
O            8.26703657141718       -0.21011313101264        0.52410943644933
C            9.06912227848686        0.92943601033931        0.31863058007678
C            6.27039964270142       -1.40439753960823        0.28033466008274
O            6.94829939911432       -2.38012925705718        0.92751999079483
C            6.31537317745639       -3.61583200086742        1.15217711710877
C            4.96302794628964       -1.49347471867959       -0.16064430359178
C           -0.05511211367372       -1.29906247805359       -0.62085686319744
C           -3.86758037025447        3.07992600430699        0.58498060215443
C           -4.49286159663096        2.77383493050346        1.94313289484366
C           -3.39165179876499        4.52917666589254        0.54797523472093
H           -4.66030026466202        0.94509067363451       -1.31640568823548
H           -6.85037928558380        0.25803162192116       -1.80468845313260
H           -7.17287442604349       -1.18600110843259       -2.79318157561361
H           -5.66836817451085       -0.26952966318766       -3.04040255244073
H           -4.88416720672258       -3.71589460520039        2.40913542187496
H           -5.29223570620378       -4.96637458756866        1.20969236903657
H           -3.61139813139015       -4.39919835331056        1.35529357841967
H           -3.07077796610445       -2.21868765711333        2.10002662693138
H           -2.14562754426994        0.02067850696302        2.01001344383370
H           -3.02188875377605        2.38238012313952       -1.88813545054866
H           -1.65198530896729        3.25146700677685       -1.20556284570283
H           -1.81103374245520        0.23006524641044       -1.62116301628650
H           -0.99335688527853        1.37490212198123       -2.69443256973690
H           -0.67628064361333        1.65183887049447        0.61785727145403
H            0.63525841192517        1.98466369793744       -0.92314021190751
H            2.11132552493482       -0.65949692842762        0.72532613231274
H            2.30680473056284        0.98978251704176        0.11078972794250
H            2.76694198818247        0.06750735147374       -2.17075252200790
H            2.67954581369920       -1.57455627803457       -1.51167743520200
H            4.62169998552446        1.56295612048703       -1.56123579000624
H            6.92357674630170        1.75715815945204       -0.79119596719031
H            8.65159112996149        1.81001823324363        0.81701555159939
H            9.20136171144928        1.14042857828877       -0.74698991949293
H           10.03428838009630        0.69003240176163        0.76064937965836
H            7.05567174969094       -4.23621171795340        1.65347565939075
H            5.43848001056755       -3.50813558175093        1.79970565785717
H            6.02060041905269       -4.09420497120334        0.21253282636366
H            4.40102758497114       -2.40127266373392       -0.00490198249042
H           -0.22071299714579       -1.61775583601871       -1.65116008982042
H           -1.01972258008625       -1.24102717432227       -0.10935206830928
H            0.55899954147532       -2.04486085926761       -0.12333730421426
H           -4.63991875734388        2.95501092798550       -0.18098088071825
H           -3.76095216473977        2.90314704960906        2.73380821053058
H           -4.87457614030224        1.75695641518947        1.97884603101694
H           -5.31925552549014        3.45579210326349        2.12325564252114
H           -2.60025590131176        4.69225046143352        1.27368918226171
H           -3.03987406413880        4.81897652321898       -0.43870975059559
H           -4.22191740670577        5.18069648090034        0.80616693961239
H           -0.59832433787845        2.77744694953323        2.72958984441332
72
 energy: -5.357205065202 xtb: 6.6.1 (8d0f1dd)
N           -1.50485945888050        2.78306942782252        2.24788998393460
C           -1.57419645763775        2.15386355830883        1.16832849911013
C           -2.75486247235917        2.05981854765857        0.25372510878816
C           -3.32833752382519        0.65038017901425        0.33522684232367
C           -4.30814402492485        0.24647473111304       -0.57442504582470
C           -4.85542868614991       -1.02201571040860       -0.53172288249456
O           -5.81496082949803       -1.49078509133382       -1.36967139871929
C           -6.38439988670073       -0.61280447208379       -2.30897402700672
C           -4.41260717017930       -1.94192779855273        0.44895456429628
O           -5.00348978826982       -3.16325716919748        0.41252574686682
C           -4.68379151082593       -4.09722317676635        1.41468567486453
C           -3.44432490772842       -1.53809976489994        1.34793602371691
C           -2.90801974399890       -0.25520079660284        1.29061597039691
C           -2.19571916333283        2.29953878031305       -1.17298044470294
C           -1.27031737406910        1.17762363863514       -1.66648960125172
C           -0.00296275299866        1.10105487032741       -0.88462349627709
N            0.61259613079573       -0.06668110681184       -0.56426089050302
C            1.99015119811206       -0.07206314899941       -0.15642382594606
C            2.95590761041500       -0.52043235907879       -1.28458497957639
C            4.38988175295117       -0.41505383909903       -0.85236763776896
C            5.11759864158043        0.74239903496495       -1.06263936932002
C            6.42906074564292        0.84640602749460       -0.62056236161218
C            7.03331059418778       -0.20432519473859        0.04790753153635
O            8.30529337527663       -0.21393884821919        0.52348619834930
C            9.10997728573439        0.92055516565626        0.31656763997479
C            6.29561058110194       -1.39193958225865        0.27180612017809
O            6.96841847444412       -2.37223405183088        0.92903010436496
C            6.32250407069738       -3.59943409883839        1.15444138809450
C            4.99187072063194       -1.47755109020826       -0.17683689666874
C           -0.08494531314511       -1.32489101394659       -0.62578116022172
C           -3.88144416978422        3.08027111453261        0.58305018979018
C           -4.51139063465355        2.78182763246564        1.94122260652542
C           -3.40232882317478        4.52931237137716        0.54748711995875
H           -4.65545611263778        0.94320629138433       -1.31922538012263
H           -6.84057864758545        0.25589486562486       -1.82354522425300
H           -7.15693557579763       -1.19044321327725       -2.81335030523290
H           -5.64811505436025       -0.27466064406164       -3.04599314459610
H           -4.91171055802590       -3.70999111260838        2.41276543209394
H           -5.30884524780697       -4.96525562590366        1.21302275120058
H           -3.63013172170249       -4.39251465060135        1.37059042622103
H           -3.09745991279310       -2.21227061657166        2.11490343702455
H           -2.17038050030953        0.02879739522335        2.02490404504522
H           -3.02337952248044        2.39437382780909       -1.87608556031351
H           -1.64369726558748        3.24044148514561       -1.18357100427532
H           -1.81658610720944        0.23618400997424       -1.62831400806599
H           -1.02074740881143        1.38215745273856       -2.71654829536421
H           -0.69775013283176        1.64021065736057        0.67231002277736
H            0.64018373090154        1.96880869835252       -0.93448352867850
H            2.09406189067110       -0.72323116799911        0.71698670604678
H            2.27526418672144        0.93936851984000        0.13823839391038
H            2.79372589525123        0.09895779975272       -2.17024832555675
H            2.71097422100128       -1.55143881134664       -1.53394800229037
H            4.67394717226131        1.57387290309301       -1.58930703930069
H            6.97487211118368        1.75691984853580       -0.80975027381765
H            8.69346207529126        1.80587868902920        0.80821316567343
H            9.24790948595271        1.12704806133814       -0.74967632415108
H           10.07194808689666        0.67900637203040        0.76481861013691
H            7.05546002266019       -4.22408241023717        1.66188694065532
H            5.44265418336415       -3.48152346687542        1.79621830429716
H            6.02656807758048       -4.07868299987556        0.21523568231322
H            4.42230402324703       -2.37971105459339       -0.01658583259228
H           -0.25770955034721       -1.63174968799002       -1.66160310403275
H           -1.05202422583066       -1.25288574433547       -0.11811155405380
H            0.51303128792146       -2.08465368112479       -0.13112309724928
H           -4.65294764955288        2.95846141220541       -0.18575031791862
H           -3.77547579546350        2.91029421327053        2.72866834343847
H           -4.89075588316610        1.76361433408587        1.97778986111606
H           -5.33885759321254        3.46493798309747        2.11920896515370
H           -2.61064950362425        4.68644226786957        1.27424740000500
H           -3.04255900349025        4.81310938122384       -0.43837842511757
H           -4.23178367804032        5.18603340719378        0.80060780388695
H           -0.62558109681175        2.78562908236078        2.75492548893054
72
 energy: -4.817072306910 xtb: 6.6.1 (8d0f1dd)
N           -1.56188967343082        2.84498596328071        2.28162673210723
C           -1.60025037134481        2.14350531352129        1.21922565524131
C           -2.77145085178229        2.06394023454623        0.27730984037979
C           -3.35145030617000        0.65874703474984        0.35251017087940
C           -4.31813309517826        0.24790150039684       -0.56674002504203
C           -4.86204589289698       -1.02082102457737       -0.52849946147555
O           -5.81578408374233       -1.49811078194213       -1.38454203495806
C           -6.36143849489987       -0.62022898866836       -2.33373837025898
C           -4.43705930192394       -1.93415748597164        0.45841831318525
O           -5.03239747702197       -3.16540550440813        0.41631638829599
C           -4.72052789593382       -4.08927648270648        1.42565123320290
C           -3.48695817453360       -1.52670709156342        1.37297428905072
C           -2.95162621111888       -0.24449513169165        1.31919570306343
C           -2.19877319980557        2.29566179893199       -1.14823449596212
C           -1.28001146529727        1.17761990422063       -1.67063732178854
C           -0.02445137484138        1.09596756847385       -0.86601695992575
N            0.60020285923102       -0.13948557668450       -0.54869983932406
C            1.96895869156031       -0.14408384759899       -0.15732353246509
C            3.00460557600301       -0.48831475944687       -1.29816944946896
C            4.44130186539726       -0.38336669045395       -0.87949918261800
C            5.19500451482823        0.75967500931942       -1.10103099959445
C            6.50624395183092        0.85181469248433       -0.65210216275527
C            7.09212075860670       -0.19829288821173        0.03027990066191
O            8.37114770392770       -0.22015432292657        0.52039980896442
C            9.18099673647922        0.90523364010264        0.30989198380979
C            6.34095489214954       -1.37073342899769        0.25539428111261
O            7.00309475953629       -2.35882746879977        0.92965428939164
C            6.33427908078096       -3.57053510757943        1.15898200139971
C            5.04055710540299       -1.44727166552890       -0.20170747841689
C           -0.13802024136493       -1.36457212371268       -0.63999625200331
C           -3.90213888982340        3.08133389863920        0.58170234668066
C           -4.54403596471239        2.79460435191597        1.93814191102653
C           -3.42026090697190        4.53091068736172        0.54587111758348
H           -4.64816970538026        0.93992323984451       -1.32462187146594
H           -6.82345766475028        0.25227075457458       -1.85905444529710
H           -7.12649225426379       -1.19719344053023       -2.85155984729556
H           -5.61047055625566       -0.28344590569795       -3.05694476693284
H           -4.96360934787062       -3.69896487839481        2.42000189754237
H           -5.33817106336048       -4.96249130720375        1.21987577092863
H           -3.66430740493560       -4.37954756154179        1.39996844506967
H           -3.14824122188348       -2.20095300681178        2.14442580200536
H           -2.21852854469338        0.04191412485204        2.05559287433592
H           -3.02522874930520        2.41735190086811       -1.85347695806064
H           -1.62859308700101        3.22680492390224       -1.14516385102887
H           -1.82984673183671        0.23758909326493       -1.63428863743765
H           -1.05962904469173        1.39124529121478       -2.72949549325365
H           -0.73557246100002        1.61126423820699        0.76768098639443
H            0.65038370854703        1.93052886042417       -0.93798357114020
H            2.06737390947947       -0.83557179240190        0.69217082786809
H            2.22282658631436        0.85928065308661        0.19652839862246
H            2.83956494686309        0.15873077354349       -2.16660813973187
H            2.76977844777202       -1.51225697861947       -1.58163712537146
H            4.76811801541487        1.59327722342703       -1.63771654288643
H            7.06635319511533        1.75523539438082       -0.84142253121822
H            8.76759388310106        1.79960625720002        0.78926486107330
H            9.32924465937722        1.10273630716592       -0.75752237169651
H           10.13823315577574        0.66166821367957        0.76818745070257
H            7.05352588316643       -4.20288957435565        1.67769668298305
H            5.45010994229307       -3.43362845688072        1.79157702536940
H            6.03646312579967       -4.05285183177871        0.22139911482163
H            4.45982571772423       -2.34153048492633       -0.03859617141072
H           -0.32018352358589       -1.65489803996726       -1.68342334198492
H           -1.10898408988998       -1.27550353067943       -0.13829958586474
H            0.43255827289850       -2.15014790709954       -0.15085929523234
H           -4.67046669205548        2.96163244344311       -0.19264741188890
H           -3.80515510559421        2.92373032869009        2.72263270102239
H           -4.92228564383711        1.77540942446256        1.97720593187410
H           -5.37208882614455        3.48018493478312        2.11000205184092
H           -2.63037617695298        4.67958892394576        1.27602185059838
H           -3.04810477297624        4.80541833972380       -0.43850934257305
H           -4.24866930225190        5.19436227200759        0.79013800274390
H           -0.67418690920899        2.79435039067189        2.78533855411572
72
 energy: 1.024177963569 xtb: 6.6.1 (8d0f1dd)
N           -1.61409264418854        2.88487959360497        2.31535767631983
C           -1.62872132532315        2.14148930179341        1.26369818968284
C           -2.78916657832210        2.06738018360386        0.29934873429061
C           -3.37473542580849        0.66540635613783        0.36965884972499
C           -4.32746947828109        0.24897094407561       -0.56120002778953
C           -4.86995410991326       -1.01998163369502       -0.52670362272526
O           -5.81482604279844       -1.50372381246581       -1.39900066658138
C           -6.33792455864375       -0.62726394852359       -2.35982565979148
C           -4.46297382068310       -1.92760705139818        0.46858432591091
O           -5.06043657307818       -3.16518178277603        0.42100294090560
C           -4.75857374725664       -4.08112377470306        1.43774504452437
C           -3.53002182533138       -1.51637326276285        1.39855731279675
C           -2.99443891036323       -0.23482697259977        1.34768462346362
C           -2.20178691594964        2.29300629467958       -1.12322244484802
C           -1.29231033907063        1.17539377864447       -1.66858751521068
C           -0.04513560305613        1.08129506670534       -0.85014941130017
N            0.58498169431274       -0.20537485352608       -0.53970209588243
C            1.94981142292017       -0.21366400301886       -0.15769169540355
C            3.04950632168419       -0.45491639333394       -1.30991425561089
C            4.49154953705504       -0.35021327661385       -0.90252228878976
C            5.27084307087144        0.77810239328038       -1.13702008223647
C            6.58312704774080        0.85739203818612       -0.68451674571238
C            7.15244311940263       -0.19214750182229        0.01210013658004
O            8.43483107318914       -0.22547407468968        0.51500359858890
C            9.25351476175902        0.89005235283781        0.30184948201198
C            6.38655536777833       -1.35077296754357        0.23942385208683
O            7.03642031705351       -2.34468828723334        0.92817539697012
C            6.34592989663640       -3.54165252440704        1.16365992674991
C            5.08820591353638       -1.41685715188980       -0.22405697551411
C           -0.18994147209372       -1.40349645249366       -0.65558578821634
C           -3.92329109858455        3.08367590232250        0.58150749784905
C           -4.57685648888741        2.80717768943125        1.93525261769176
C           -3.43766510907600        4.53271082118561        0.54400056076611
H           -4.64156538995647        0.93682503338328       -1.33035731443623
H           -6.80648832826921        0.24854548473324       -1.89646858591324
H           -7.09465711782021       -1.20394762608997       -2.89121537796865
H           -5.57185717247792       -0.29275235145822       -3.06896947024754
H           -5.01790575845118       -3.68795125971283        2.42772255937776
H           -5.36859880060922       -4.95911520631912        1.22694620036547
H           -3.70004290396136       -4.36640387473813        1.43060873208611
H           -3.20153339990684       -2.18918401302691        2.17616039948912
H           -2.26883591592724        0.05452693026833        2.08948940327589
H           -3.02475215756299        2.43924686058011       -1.83116888941233
H           -1.61418433519139        3.21405336358648       -1.10717825648459
H           -1.84764761086340        0.23840254692994       -1.63720378937653
H           -1.09006749974103        1.39772244401820       -2.73218418998215
H           -0.77156764228563        1.58463026966848        0.85441304153970
H            0.65569204578417        1.89032166758637       -0.93264711901671
H            2.04339339787622       -0.94750659233843        0.66328102240148
H            2.17547099441627        0.77791448346783        0.25612009883249
H            2.88327916113173        0.22021186929516       -2.16002732006124
H            2.83006526534045       -1.47121606934082       -1.63174093647486
H            4.86291796018518        1.61335534799827       -1.68643870557191
H            7.15773637534015        1.75258761236487       -0.87616181090633
H            8.84393475104716        1.79331246560630        0.76918785163570
H            9.41277808277560        1.07785288002423       -0.76639906418402
H           10.20548042575303        0.64354899625161        0.77058564861568
H            7.05140496075016       -4.18092715132118        1.69397636465095
H            5.45817997583734       -3.38459914983140        1.78756802491186
H            6.04645777644975       -4.02763459713481        0.22821587241795
H            4.49770673125820       -2.30406359539009       -0.05937438456401
H           -0.38055500935784       -1.67632052099233       -1.70525831013899
H           -1.16418940095391       -1.29693613221406       -0.15944042995352
H            0.35261400234607       -2.21487373544359       -0.17287380234352
H           -4.68650232602000        2.96344023721250       -0.19901789709469
H           -3.83821927844152        2.93793508481005        2.71956700773235
H           -4.95524030426982        1.78777948878267        1.97663512745967
H           -5.40515393335189        3.49531672362018        2.09935939141327
H           -2.65100730461230        4.67622170522007        1.27840447105632
H           -3.05451690165249        4.79896294545375       -0.43881079473579
H           -4.26535781845274        5.20162974805947        0.77900748825108
H           -0.72216388053400        2.80678553238905        2.81526258017311
72
 energy: 8.580413451377 xtb: 6.6.1 (8d0f1dd)
N           -1.66025755088067        2.90583178299083        2.34855115399727
C           -1.65719609210222        2.14467784439632        1.30085963777815
C           -2.80694359186131        2.06977795596845        0.31923457175555
C           -3.39678153005846        0.67013968864341        0.38577606453016
C           -4.33555542706170        0.24943416711886       -0.55731705395441
C           -4.87805245778921       -1.01943310300454       -0.52594252263976
O           -5.81261714434766       -1.50802408233905       -1.41259564998335
C           -6.31448175272191       -0.63412722035236       -2.38600140325430
C           -4.48888794497802       -1.92198961460865        0.47879843142900
O           -5.08728543656259       -3.16333135535716        0.42619318348680
C           -4.79687499677361       -4.07321647048081        1.45010572151148
C           -3.57222846408807       -1.50711312318797        1.42345959630969
C           -3.03536626609777       -0.22647210145217        1.37500609154144
C           -2.20449839957610        2.29179213579281       -1.09910823225940
C           -1.30692160662251        1.17103158944428       -1.66208605620240
C           -0.06590148796710        1.06085938821705       -0.83679881926634
N            0.56779107279768       -0.26627458346608       -0.53400594241265
C            1.93138108512544       -0.27983009190530       -0.15771044424796
C            3.09077495457632       -0.42143258720920       -1.31967188387945
C            4.53979394006136       -0.31655412666792       -0.92223176363300
C            5.34404751742172        0.79659752424952       -1.17134362583267
C            6.65815632330480        0.86274007986451       -0.71756551942437
C            7.21227825102221       -0.18563492492636       -0.00649392068095
O            8.49555438409677       -0.22996470862460        0.50783549051132
C            9.32611178653551        0.87492036577629        0.29371841569796
C            6.43119947370712       -1.33129716601545        0.22411084349930
O            7.06826385352513       -2.32975050945655        0.92500154792645
C            6.35762528096149       -3.51272034101613        1.16794448784446
C            5.13393404491949       -1.38615393240770       -0.24353702020972
C           -0.24143185702459       -1.44036909438321       -0.67077756104836
C           -3.94347211740601        3.08658884932190        0.58224701653298
C           -4.60889722332812        2.81930430304513        1.93251791927296
C           -3.45425309938988        4.53472772632988        0.54201126187456
H           -4.63523901618699        0.93372762368832       -1.33589640305777
H           -6.78999605870931        0.24462293914897       -1.93445505407835
H           -7.06235619067680       -1.21118382543048       -2.93023453015095
H           -5.53385139224607       -0.30267079137494       -3.08142248554287
H           -5.07273311474620       -3.67764684882321        2.43532128349632
H           -5.39965374452948       -4.95520167349900        1.23351419447174
H           -3.73658989073357       -4.35405036813706        1.46106198736437
H           -3.25554831646985       -2.17743811679141        2.20842029612491
H           -2.31963833380079        0.06610677772975        2.12477290498401
H           -3.02247878412558        2.46033907940095       -1.80985303189148
H           -1.60049014689039        3.20267338416658       -1.07040799861358
H           -1.86985859488384        0.23844349166375       -1.63834396071588
H           -1.11319381029369        1.40210665694500       -2.72685348606409
H           -0.80506063274648        1.56428181391718        0.92938166802735
H            0.65572018479813        1.84938201856535       -0.91945354167209
H            2.01940073202070       -1.05539260929108        0.63162829574024
H            2.13343119405060        0.69540488756205        0.31366558313156
H            2.92437347237957        0.28081326042435       -2.15109118088411
H            2.88893610486033       -1.42866553936575       -1.68064564669537
H            4.95636149169196        1.63316703169787       -1.73471737377851
H            7.24735573937349        1.74881887877105       -0.91371612710954
H            8.92142282555637        1.78680109233998        0.74964523511163
H            9.49778384590903        1.05299058908411       -0.77478570728010
H           10.27187259845069        0.62374347425747        0.77359054776683
H            7.04971483227576       -4.15774509488999        1.70979370788629
H            5.46713574896769       -3.33555201242093        1.78364141955340
H            6.05684627514852       -4.00292620737856        0.23500814451833
H            4.53486258306765       -2.26701864198928       -0.07801483473787
H           -0.43947131937927       -1.69547709225909       -1.72551667211962
H           -1.21798729826300       -1.31587118006509       -0.17936328448215
H            0.27290414673425       -2.27621528903276       -0.19523899295148
H           -4.70062703514251        2.96413639469626       -0.20446639825810
H           -3.87331153882894        2.95246810566472        2.71910926501165
H           -4.98825648462089        1.80020806253895        1.97609893240230
H           -5.43733833482027        3.50985652346873        2.08759068132634
H           -2.67188427359653        4.67611769919939        1.28117723082454
H           -3.06133407435156        4.79367604942593       -0.43913901714097
H           -4.28158979901484        5.20793877590725        0.76757614636878
H           -0.76674191879923        2.81978725313944        2.84492051466521
72
 energy: 17.278452499067 xtb: 6.6.1 (8d0f1dd)
N           -1.70204051128462        2.91879198890889        2.37948256006884
C           -1.68567672784569        2.14806938962731        1.33411835282977
C           -2.82452275120645        2.07121506255663        0.33779228903069
C           -3.41809676160794        0.67363133985574        0.40131452283438
C           -4.34276127040782        0.24943457495289       -0.55432419462448
C           -4.88612016619007       -1.01908811176037       -0.52583809361775
O           -5.80954416585182       -1.51151005386901       -1.42565304875468
C           -6.29089309069916       -0.64094264414900       -2.41213511173992
C           -4.51472149912357       -1.91692215172425        0.48882449285279
O           -5.11345837683268       -3.16047044910618        0.43157754833977
C           -4.83549260813120       -4.06546968920847        1.46245763486100
C           -3.61404952020541       -1.49847216158947        1.44764500295427
C           -3.07527264098425       -0.21888589613703        1.40150698989140
C           -2.20695003149828        2.29100576934897       -1.07560927633308
C           -1.32289050052876        1.16493692565167       -1.65276874368826
C           -0.08724698405477        1.03654711460310       -0.82420520565403
N            0.54845193281314       -0.32398102571231       -0.52931879951569
C            1.91205592020244       -0.34379556270282       -0.15762128916824
C            3.13045190096400       -0.38772816986543       -1.32830335772932
C            4.58755711352625       -0.28282205334972       -0.94073439108679