      -----------------------------------------------------------      
     |                   =====================                   |     
     |                           x T B                           |     
     |                   =====================                   |     
     |                         S. Grimme                         |     
     |          Mulliken Center for Theoretical Chemistry        |     
     |                    University of Bonn                     |     
      -----------------------------------------------------------      

   * xtb version 6.6.1 (8d0f1dd) compiled by 'conda@1efc2f54142f' on 2023-08-01

   xtb is free software: you can redistribute it and/or modify it under
   the terms of the GNU Lesser General Public License as published by
   the Free Software Foundation, either version 3 of the License, or
   (at your option) any later version.
   
   xtb is distributed in the hope that it will be useful,
   but WITHOUT ANY WARRANTY; without even the implied warranty of
   MERCHANTABILITY or FITNESS FOR A PARTICULAR PURPOSE.  See the
   GNU Lesser General Public License for more details.
   
   Cite this work as:
   * C. Bannwarth, E. Caldeweyher, S. Ehlert, A. Hansen, P. Pracht,
     J. Seibert, S. Spicher, S. Grimme, WIREs Comput. Mol. Sci., 2020, 11,
     e01493. DOI: 10.1002/wcms.1493
   
   for GFN2-xTB:
   * C. Bannwarth, S. Ehlert and S. Grimme., J. Chem. Theory Comput., 2019,
     15, 1652-1671. DOI: 10.1021/acs.jctc.8b01176
   for GFN1-xTB:
   * S. Grimme, C. Bannwarth, P. Shushkov, J. Chem. Theory Comput., 2017,
     13, 1989-2009. DOI: 10.1021/acs.jctc.7b00118
   for GFN0-xTB:
   * P. Pracht, E. Caldeweyher, S. Ehlert, S. Grimme, ChemRxiv, 2019, preprint.
     DOI: 10.26434/chemrxiv.8326202.v1
   for GFN-FF:
   * S. Spicher and S. Grimme, Angew. Chem. Int. Ed., 2020, 59, 15665-15673.
     DOI: 10.1002/anie.202004239
   
   for ALPB and GBSA implicit solvation:
   * S. Ehlert, M. Stahn, S. Spicher, S. Grimme, J. Chem. Theory Comput.,
     2021, 17, 4250-4261. DOI: 10.1021/acs.jctc.1c00471
   
   for DFT-D4:
   * E. Caldeweyher, C. Bannwarth and S. Grimme, J. Chem. Phys., 2017,
     147, 034112. DOI: 10.1063/1.4993215
   * E. Caldeweyher, S. Ehlert, A. Hansen, H. Neugebauer, S. Spicher,
     C. Bannwarth and S. Grimme, J. Chem. Phys., 2019, 150, 154122.
     DOI: 10.1063/1.5090222
   * E. Caldeweyher, J.-M. Mewes, S. Ehlert and S. Grimme, Phys. Chem. Chem. Phys.
     2020, 22, 8499-8512. DOI: 10.1039/D0CP00502A
   
   for sTDA-xTB:
   * S. Grimme and C. Bannwarth, J. Chem. Phys., 2016, 145, 054103.
     DOI: 10.1063/1.4959605
   
   in the mass-spec context:
   * V. Asgeirsson, C. Bauer and S. Grimme, Chem. Sci., 2017, 8, 4879.
     DOI: 10.1039/c7sc00601b
   * J. Koopman and S. Grimme, ACS Omega 2019, 4, 12, 15120-15133.
     DOI: 10.1021/acsomega.9b02011
   
   for metadynamics refer to:
   * S. Grimme, J. Chem. Theory Comput., 2019, 155, 2847-2862
     DOI: 10.1021/acs.jctc.9b00143
   
   for SPH calculations refer to:
   * S. Spicher and S. Grimme, J. Chem. Theory Comput., 2021, 17, 1701-1714
     DOI: 10.1021/acs.jctc.0c01306
   
   with help from (in alphabetical order)
   P. Atkinson, C. Bannwarth, F. Bohle, G. Brandenburg, E. Caldeweyher
   M. Checinski, S. Dohm, S. Ehlert, S. Ehrlich, I. Gerasimov, C. Hölzer
   A. Katbashev, J. Koopman, C. Lavigne, S. Lehtola, F. März, M. Müller,
   F. Musil, H. Neugebauer, J. Pisarek, C. Plett, P. Pracht, F. Pultar,
   J. Seibert, P. Shushkov, S. Spicher, M. Stahn, M. Steiner, T. Strunk,
   J. Stückrath, T. Rose, and J. Unsleber
   
 * started run on 2024/06/05 at 20:00:11.298     

           -------------------------------------------------
          |                Calculation Setup                |
           -------------------------------------------------

          program call               : xtb struc.xyz --opt loose --input .xc1 --gfn2
          hostname                   : n-62-21-68
          coordinate file            : struc.xyz
          omp threads                :                     1

   ID    Z sym.   atoms
    1    6 C      1, 3, 5-7, 10, 11, 14
    2    7 N      2, 4, 9, 13
    3    8 O      8, 12
    4    1 H      15-25
constraining bond 5 22 to    5.1400000 Å, actual value:    2.7765911 Å

           -------------------------------------------------
          |                 G F N 2 - x T B                 |
           -------------------------------------------------

        Reference                      10.1021/acs.jctc.8b01176
      * Hamiltonian:
        H0-scaling (s, p, d)           1.850000    2.230000    2.230000
        zeta-weighting                 0.500000
      * Dispersion:
        s8                             2.700000
        a1                             0.520000
        a2                             5.000000
        s9                             5.000000
      * Repulsion:
        kExp                           1.500000    1.000000
        rExp                           1.000000
      * Coulomb:
        alpha                          2.000000
        third order                    shell-resolved
        anisotropic                    true
        a3                             3.000000
        a5                             4.000000
        cn-shift                       1.200000
        cn-exp                         4.000000
        max-rad                        5.000000


          ...................................................
          :                      SETUP                      :
          :.................................................:
          :  # basis functions                  67          :
          :  # atomic orbitals                  67          :
          :  # shells                           39          :
          :  # electrons                        74          :
          :  max. iterations                   250          :
          :  Hamiltonian                  GFN2-xTB          :
          :  restarted?                      false          :
          :  GBSA solvation                  false          :
          :  PC potential                    false          :
          :  electronic temp.         5000.0000000     K    :
          :  accuracy                    1.0000000          :
          :  -> integral cutoff          0.2500000E+02      :
          :  -> integral neglect         0.1000000E-07      :
          :  -> SCF convergence          0.1000000E-05 Eh   :
          :  -> wf. convergence          0.1000000E-03 e    :
          :  Broyden damping             0.4000000          :
          ...................................................

 iter      E             dE          RMSdq      gap      omega  full diag
   1    -42.5894031 -0.425894E+02  0.445E+00    3.52       0.0  T
   2    -42.7683054 -0.178902E+00  0.251E+00    3.36       1.0  T
   3    -42.7759211 -0.761567E-02  0.147E+00    3.35       1.0  T
   4    -42.7728404  0.308066E-02  0.553E-01    3.33       1.0  T
   5    -42.7789548 -0.611444E-02  0.112E-01    3.35       1.0  T
   6    -42.7790473 -0.924914E-04  0.614E-02    3.33       1.0  T
   7    -42.7790721 -0.247928E-04  0.258E-02    3.34       1.0  T
   8    -42.7790772 -0.508996E-05  0.938E-03    3.34       2.1  T
   9    -42.7790779 -0.669422E-06  0.448E-03    3.34       4.5  T
  10    -42.7790780 -0.821511E-07  0.115E-03    3.34      17.4  T
  11    -42.7790780 -0.322662E-08  0.553E-04    3.34      36.2  T
  12    -42.7790780 -0.287052E-08  0.180E-04    3.34     111.1  T

   *** convergence criteria satisfied after 12 iterations ***

         #    Occupation            Energy/Eh            Energy/eV
      -------------------------------------------------------------
         1        2.0000           -0.9185990             -24.9964
       ...           ...                  ...                  ...
        31        1.9996           -0.6230278             -16.9534
        32        1.9995           -0.6194601             -16.8564
        33        1.9979           -0.5974976             -16.2587
        34        1.9932           -0.5789629             -15.7544
        35        1.9817           -0.5631863             -15.3251
        36        1.9779           -0.5602245             -15.2445
        37        1.9748           -0.5581234             -15.1873 (HOMO)
        38        0.0652           -0.4353579             -11.8467 (LUMO)
        39        0.0099           -0.4050467             -11.0219
        40        0.0013           -0.3732218             -10.1559
        41        0.0000           -0.2886859              -7.8555
        42                         -0.2065804              -5.6213
       ...                                ...                  ...
        67                          0.5625656              15.3082
      -------------------------------------------------------------
                  HL-Gap            0.1227656 Eh            3.3406 eV
             Fermi-level           -0.4890455 Eh          -13.3076 eV

 SCC (total)                   0 d,  0 h,  0 min,  0.037 sec
 SCC setup                      ...        0 min,  0.000 sec (  0.796%)
 Dispersion                     ...        0 min,  0.000 sec (  1.025%)
 classical contributions        ...        0 min,  0.000 sec (  0.264%)
 integral evaluation            ...        0 min,  0.006 sec ( 15.563%)
 iterations                     ...        0 min,  0.017 sec ( 46.665%)
 molecular gradient             ...        0 min,  0.013 sec ( 35.201%)
 printout                       ...        0 min,  0.000 sec (  0.445%)

         :::::::::::::::::::::::::::::::::::::::::::::::::::::
         ::                     SUMMARY                     ::
         :::::::::::::::::::::::::::::::::::::::::::::::::::::
         :: total energy             -32.274409009627 Eh    ::
         :: gradient norm              6.316736421704 Eh/a0 ::
         :: HOMO-LUMO gap              3.340621582928 eV    ::
         ::.................................................::
         :: SCC energy               -42.779077977399 Eh    ::
         :: -> isotropic ES            0.141123876439 Eh    ::
         :: -> anisotropic ES         -0.005230418907 Eh    ::
         :: -> anisotropic XC          0.011966818540 Eh    ::
         :: -> dispersion             -0.022657731803 Eh    ::
         :: repulsion energy           0.531105277918 Eh    ::
         :: add. restraining           9.973449530845 Eh    ::
         :: total charge               1.000000000002 e     ::
         :::::::::::::::::::::::::::::::::::::::::::::::::::::

      ----------------------------------------------------------- 
     |                   =====================                   |
     |                        A N C O P T                        |
     |                   =====================                   |
     |               Approximate Normal Coordinate               |
     |                Rational Function Optimizer                |
      ----------------------------------------------------------- 

          ...................................................
          :                      SETUP                      :
          :.................................................:
          :   optimization level             loose          :
          :   max. optcycles                   200          :
          :   ANC micro-cycles                  20          :
          :   degrees of freedom                69          :
          :.................................................:
          :   RF solver                   davidson          :
          :   write xtbopt.log                true          :
          :   linear?                        false          :
          :   energy convergence         0.5000000E-04 Eh   :
          :   grad. convergence          0.4000000E-02 Eh/α :
          :   maxmium RF displ.          1.0000000          :
          :   Hlow (freq-cutoff)         0.1000000E-01      :
          :   Hmax (freq-cutoff)         5.0000000          :
          :   S6 in model hess.         20.0000000          :
          ...................................................

generating ANC from model Hessian ...
Using Lindh-Hessian (1995)
 Shifting diagonal of input Hessian by    1.4257946076949211     
 Lowest  eigenvalues of input Hessian
    0.010000    0.252740    0.000000    0.000000    0.000000    0.000000
    0.000000    0.000000    1.429276    1.430744    1.434380    1.436039
    1.437157    1.439273    1.441758    1.446727    1.449005    1.463996
 Highest eigenvalues
    3.496503    3.571952    3.633988    3.824222    3.913543    4.608829


........................................................................
.............................. CYCLE    1 ..............................
........................................................................

 iter      E             dE          RMSdq      gap      omega  full diag
   1    -42.7790780 -0.427791E+02  0.626E-05    3.34       0.0  T
   2    -42.7790780 -0.124203E-10  0.329E-05    3.34     607.4  T
   3    -42.7790780  0.106581E-12  0.193E-05    3.34    1034.2  T
     SCC iter.                  ...        0 min,  0.005 sec
     gradient                   ...        0 min,  0.013 sec
 * total energy  :   -32.2744090 Eh     change       -0.6650680E-10 Eh
   gradient norm :     6.3167363 Eh/α   predicted     0.0000000E+00 (-100.00%)
   displ. norm   :     0.7354211 α      lambda       -0.4615695E+01
   maximum displ.:     0.5880388 α      in ANC's #69, #60, #50, ...

........................................................................
.............................. CYCLE    2 ..............................
........................................................................

 iter      E             dE          RMSdq      gap      omega  full diag
   1    -42.7329191 -0.427329E+02  0.992E-01    3.35       0.0  T
   2    -42.7397527 -0.683368E-02  0.591E-01    3.00       1.0  T
   3    -42.7407141 -0.961318E-03  0.307E-01    3.21       1.0  T
   4    -42.7409022 -0.188140E-03  0.646E-02    3.09       1.0  T
   5    -42.7409768 -0.746467E-04  0.227E-02    3.13       1.0  T
   6    -42.7409803 -0.341253E-05  0.115E-02    3.13       1.7  T
   7    -42.7409808 -0.544184E-06  0.239E-03    3.13       8.4  T
   8    -42.7409809 -0.953834E-07  0.896E-04    3.13      22.3  T
   9    -42.7409809 -0.168330E-08  0.396E-04    3.13      50.5  T
     SCC iter.                  ...        0 min,  0.013 sec
     gradient                   ...        0 min,  0.013 sec
 * total energy  :   -36.2604841 Eh     change       -0.3986075E+01 Eh
   gradient norm :     4.5484197 Eh/α   predicted    -0.3556316E+01 ( -10.78%)
   displ. norm   :     0.7863609 α      lambda       -0.3547464E+01
   maximum displ.:     0.5884372 α      in ANC's #69, #60, #50, ...

........................................................................
.............................. CYCLE    3 ..............................
........................................................................

 iter      E             dE          RMSdq      gap      omega  full diag
   1    -42.6196461 -0.426196E+02  0.948E-01    2.91       0.0  T
   2    -42.6252862 -0.564009E-02  0.663E-01    2.44       1.0  T
   3    -42.6276571 -0.237089E-02  0.328E-01    2.73       1.0  T
   4    -42.6279528 -0.295635E-03  0.103E-01    2.57       1.0  T
   5    -42.6281393 -0.186560E-03  0.267E-02    2.64       1.0  T
   6    -42.6281463 -0.696371E-05  0.140E-02    2.63       1.4  T
   7    -42.6281474 -0.109879E-05  0.356E-03    2.64       5.6  T
   8    -42.6281476 -0.164260E-06  0.902E-04    2.64      22.2  T
   9    -42.6281476 -0.143788E-08  0.418E-04    2.64      47.8  T
     SCC iter.                  ...        0 min,  0.013 sec
     gradient                   ...        0 min,  0.013 sec
 * total energy  :   -39.1279633 Eh     change       -0.2867479E+01 Eh
   gradient norm :     2.8358501 Eh/α   predicted    -0.2870547E+01 (   0.11%)
   displ. norm   :     0.7797007 α      lambda       -0.2163551E+01
   maximum displ.:     0.4173491 α      in ANC's #69, #50, #57, ...

........................................................................
.............................. CYCLE    4 ..............................
........................................................................

 iter      E             dE          RMSdq      gap      omega  full diag
   1    -42.4717250 -0.424717E+02  0.794E-01    2.05       0.0  T
   2    -42.4735287 -0.180370E-02  0.498E-01    2.06       1.0  T
   3    -42.4738572 -0.328514E-03  0.272E-01    2.09       1.0  T
   4    -42.4745427 -0.685466E-03  0.740E-02    2.07       1.0  T
   5    -42.4746426 -0.999616E-04  0.211E-02    2.09       1.0  T
   6    -42.4746480 -0.533610E-05  0.124E-02    2.08       1.6  T
   7    -42.4746485 -0.566045E-06  0.630E-03    2.09       3.2  T
   8    -42.4746496 -0.105321E-05  0.166E-03    2.09      12.0  T
   9    -42.4746496 -0.406936E-07  0.823E-04    2.09      24.3  T
  10    -42.4746496 -0.611885E-08  0.335E-04    2.09      59.7  T
     SCC iter.                  ...        0 min,  0.014 sec
     gradient                   ...        0 min,  0.013 sec
 * total energy  :   -40.8460931 Eh     change       -0.1718130E+01 Eh
   gradient norm :     1.6688300 Eh/α   predicted    -0.1739444E+01 (   1.24%)
   displ. norm   :     0.6634971 α      lambda       -0.1076819E+01
   maximum displ.:     0.3716626 α      in ANC's #69, #1, #50, ...

........................................................................
.............................. CYCLE    5 ..............................
........................................................................

 iter      E             dE          RMSdq      gap      omega  full diag
   1    -42.3405829 -0.423406E+02  0.106E+00    0.83       0.0  T
   2    -42.3202916  0.202912E-01  0.909E-01    1.61       1.0  T
   3    -42.3446866 -0.243950E-01  0.646E-01    0.87       1.0  T
   4    -42.3533707 -0.868402E-02  0.275E-01    1.19       1.0  T
   5    -42.3558771 -0.250647E-02  0.682E-02    1.14       1.0  T
   6    -42.3559548 -0.777084E-04  0.239E-02    1.14       1.0  T
   7    -42.3559593 -0.443991E-05  0.140E-02    1.14       1.4  T
   8    -42.3559610 -0.175095E-05  0.338E-03    1.14       5.9  T
   9    -42.3559612 -0.209226E-06  0.152E-03    1.14      13.2  T
  10    -42.3559613 -0.402875E-07  0.750E-04    1.14      26.7  T
  11    -42.3559613 -0.750581E-08  0.219E-04    1.14      91.3  T
     SCC iter.                  ...        0 min,  0.015 sec
     gradient                   ...        0 min,  0.013 sec
 * total energy  :   -41.6116905 Eh     change       -0.7655975E+00 Eh
   gradient norm :     0.6870176 Eh/α   predicted    -0.7754328E+00 (   1.28%)
   displ. norm   :     0.5324792 α      lambda       -0.3059723E+00
   maximum displ.:     0.3901128 α      in ANC's #1, #69, #40, ...

........................................................................
.............................. CYCLE    6 ..............................
........................................................................

 iter      E             dE          RMSdq      gap      omega  full diag
   1    -42.2524246 -0.422524E+02  0.115E+00    0.22       0.0  T
   2    -42.0951911  0.157233E+00  0.193E+00    1.39       1.0  T
   3    -42.2924504 -0.197259E+00  0.464E-01    0.56       1.0  T
   4    -42.2913798  0.107062E-02  0.314E-01    0.65       1.0  T
   5    -42.2938941 -0.251434E-02  0.139E-01    0.63       1.0  T
   6    -42.2942614 -0.367251E-03  0.433E-02    0.62       1.0  T
   7    -42.2942660 -0.461523E-05  0.308E-02    0.63       1.0  T
   8    -42.2942840 -0.180542E-04  0.170E-02    0.63       1.2  T
   9    -42.2942891 -0.506673E-05  0.560E-03    0.62       3.6  T
  10    -42.2942896 -0.527519E-06  0.322E-03    0.62       6.2  T
  11    -42.2942898 -0.195667E-06  0.155E-03    0.62      12.9  T
  12    -42.2942899 -0.527130E-07  0.360E-04    0.62      55.5  T
  13    -42.2942899 -0.169205E-08  0.872E-05    0.62     229.5  T
     SCC iter.                  ...        0 min,  0.018 sec
     gradient                   ...        0 min,  0.013 sec
 * total energy  :   -41.7942926 Eh     change       -0.1826021E+00 Eh
   gradient norm :     0.2064817 Eh/α   predicted    -0.1963639E+00 (   7.54%)
   displ. norm   :     0.3855997 α      lambda       -0.3524335E-01
   maximum displ.:     0.3700584 α      in ANC's #1, #40, #50, ...

........................................................................
.............................. CYCLE    7 ..............................
........................................................................

 iter      E             dE          RMSdq      gap      omega  full diag
   1    -42.2707702 -0.422708E+02  0.552E-01    0.26       0.0  T
   2    -42.2056285  0.651417E-01  0.126E+00    1.09       1.0  T
   3    -42.2826107 -0.769822E-01  0.320E-01    0.55       1.0  T
   4    -42.2812393  0.137139E-02  0.277E-01    0.59       1.0  T
   5    -42.2837249 -0.248557E-02  0.910E-02    0.48       1.0  T
   6    -42.2839015 -0.176659E-03  0.310E-02    0.49       1.0  T
   7    -42.2839098 -0.825993E-05  0.221E-02    0.49       1.0  T
   8    -42.2839104 -0.580053E-06  0.149E-02    0.49       1.3  T
   9    -42.2839144 -0.405261E-05  0.507E-03    0.49       3.9  T
  10    -42.2839150 -0.599240E-06  0.268E-03    0.49       7.5  T
  11    -42.2839152 -0.158409E-06  0.117E-03    0.49      17.1  T
  12    -42.2839152 -0.268214E-07  0.245E-04    0.49      81.5  T
  13    -42.2839152 -0.174416E-08  0.737E-05    0.49     271.4  T
     SCC iter.                  ...        0 min,  0.018 sec
     gradient                   ...        0 min,  0.013 sec
 * total energy  :   -41.8180865 Eh     change       -0.2379390E-01 Eh
   gradient norm :     0.1988303 Eh/α   predicted    -0.2024797E-01 ( -14.90%)
   displ. norm   :     0.4687067 α      lambda       -0.5989761E-01
   maximum displ.:     0.2090291 α      in ANC's #40, #1, #48, ...

........................................................................
.............................. CYCLE    8 ..............................
........................................................................

 iter      E             dE          RMSdq      gap      omega  full diag
   1    -42.3260149 -0.423260E+02  0.847E-01    0.49       0.0  T
   2    -42.3057374  0.202774E-01  0.105E+00    0.54       1.0  T
   3    -42.3360206 -0.302831E-01  0.423E-01    0.44       1.0  T
   4    -42.3366104 -0.589821E-03  0.236E-01    0.54       1.0  T
   5    -42.3333308  0.327959E-02  0.305E-01    0.33       1.0  T
   6    -42.3382113 -0.488046E-02  0.324E-02    0.48       1.0  T
   7    -42.3382249 -0.136822E-04  0.187E-02    0.47       1.1  T
   8    -42.3382260 -0.105337E-05  0.106E-02    0.47       1.9  T
   9    -42.3382278 -0.179298E-05  0.364E-03    0.47       5.5  T
  10    -42.3382281 -0.365661E-06  0.149E-03    0.47      13.4  T
  11    -42.3382282 -0.383696E-07  0.614E-04    0.47      32.6  T
  12    -42.3382282 -0.303594E-08  0.209E-04    0.47      95.8  T
     SCC iter.                  ...        0 min,  0.016 sec
     gradient                   ...        0 min,  0.013 sec
 * total energy  :   -41.8604352 Eh     change       -0.4234873E-01 Eh
   gradient norm :     0.3244478 Eh/α   predicted    -0.3652828E-01 ( -13.74%)
   displ. norm   :     0.4820032 α      lambda       -0.7286743E-01
   maximum displ.:     0.2126955 α      in ANC's #40, #50, #48, ...

........................................................................
.............................. CYCLE    9 ..............................
........................................................................

 iter      E             dE          RMSdq      gap      omega  full diag
   1    -42.3692728 -0.423693E+02  0.104E+00    0.37       0.0  T
   2    -42.3308804  0.383924E-01  0.144E+00    0.56       1.0  T
   3    -42.3916899 -0.608095E-01  0.438E-01    0.31       1.0  T
   4    -42.3915681  0.121760E-03  0.301E-01    0.46       1.0  T
   5    -42.3860129  0.555527E-02  0.410E-01    0.19       1.0  T
   6    -42.3939177 -0.790485E-02  0.387E-02    0.37       1.0  T
   7    -42.3939468 -0.290553E-04  0.178E-02    0.36       1.1  T
   8    -42.3939499 -0.315328E-05  0.114E-02    0.36       1.8  T
   9    -42.3939515 -0.155390E-05  0.401E-03    0.36       5.0  T
  10    -42.3939518 -0.349339E-06  0.149E-03    0.36      13.4  T
  11    -42.3939519 -0.280912E-07  0.752E-04    0.36      26.6  T
  12    -42.3939519 -0.464821E-08  0.223E-04    0.36      89.9  T
     SCC iter.                  ...        0 min,  0.016 sec
     gradient                   ...        0 min,  0.013 sec
 * total energy  :   -41.9131144 Eh     change       -0.5267923E-01 Eh
   gradient norm :     0.2839454 Eh/α   predicted    -0.4489839E-01 ( -14.77%)
   displ. norm   :     0.4371952 α      lambda       -0.5378776E-01
   maximum displ.:     0.2467477 α      in ANC's #1, #40, #50, ...

........................................................................
.............................. CYCLE   10 ..............................
........................................................................

 iter      E             dE          RMSdq      gap      omega  full diag
   1    -42.4398908 -0.424399E+02  0.928E-01    0.67       0.0  T
   2    -42.3873080  0.525828E-01  0.138E+00    0.36       1.0  T
   3    -42.4513636 -0.640555E-01  0.451E-01    0.56       1.0  T
   4    -42.4525641 -0.120052E-02  0.294E-01    0.33       1.0  T
   5    -42.4542226 -0.165846E-02  0.191E-01    0.46       1.0  T
   6    -42.4554918 -0.126921E-02  0.370E-02    0.41       1.0  T
   7    -42.4555191 -0.273028E-04  0.146E-02    0.42       1.4  T
   8    -42.4555199 -0.780316E-06  0.570E-03    0.41       3.5  T
   9    -42.4555203 -0.490075E-06  0.159E-03    0.41      12.6  T
  10    -42.4555204 -0.406090E-07  0.812E-04    0.41      24.6  T
  11    -42.4555204 -0.612135E-08  0.430E-04    0.41      46.5  T
     SCC iter.                  ...        0 min,  0.015 sec
     gradient                   ...        0 min,  0.013 sec
 * total energy  :   -41.9504929 Eh     change       -0.3737844E-01 Eh
   gradient norm :     0.2483383 Eh/α   predicted    -0.3203483E-01 ( -14.30%)
   displ. norm   :     0.3131354 α      lambda       -0.3949752E-01
   maximum displ.:     0.1852878 α      in ANC's #1, #69, #47, ...

........................................................................
.............................. CYCLE   11 ..............................
........................................................................

 iter      E             dE          RMSdq      gap      omega  full diag
   1    -42.4912954 -0.424913E+02  0.628E-01    0.56       0.0  T
   2    -42.4725001  0.187953E-01  0.759E-01    0.29       1.0  T
   3    -42.4931876 -0.206875E-01  0.391E-01    0.58       1.0  T
   4    -42.4960315 -0.284393E-02  0.250E-01    0.45       1.0  T
   5    -42.4968997 -0.868207E-03  0.107E-01    0.48       1.0  T
   6    -42.4972260 -0.326277E-03  0.270E-02    0.47       1.0  T
   7    -42.4972421 -0.161394E-04  0.900E-03    0.47       2.2  T
   8    -42.4972421  0.400446E-07  0.331E-03    0.47       6.0  T
   9    -42.4972423 -0.171268E-06  0.129E-03    0.47      15.6  T
  10    -42.4972423 -0.268301E-07  0.520E-04    0.47      38.4  T
  11    -42.4972423 -0.189907E-08  0.202E-04    0.47      99.1  T
     SCC iter.                  ...        0 min,  0.015 sec
     gradient                   ...        0 min,  0.013 sec
 * total energy  :   -41.9829363 Eh     change       -0.3244341E-01 Eh
   gradient norm :     0.2298828 Eh/α   predicted    -0.2168528E-01 ( -33.16%)
   displ. norm   :     0.6264664 α      lambda       -0.6584307E-01
   maximum displ.:     0.4199614 α      in ANC's #1, #47, #40, ...

........................................................................
.............................. CYCLE   12 ..............................
........................................................................

 iter      E             dE          RMSdq      gap      omega  full diag
   1    -42.5432151 -0.425432E+02  0.875E-01    0.39       0.0  T
   2    -42.5350193  0.819577E-02  0.804E-01    0.47       1.0  T
   3    -42.5447141 -0.969475E-02  0.543E-01    0.38       1.0  T
   4    -42.5450912 -0.377156E-03  0.401E-01    0.51       1.0  T
   5    -42.5492168 -0.412559E-02  0.133E-01    0.38       1.0  T
   6    -42.5498879 -0.671045E-03  0.374E-02    0.40       1.0  T
   7    -42.5499109 -0.230507E-04  0.152E-02    0.40       1.3  T
   8    -42.5499124 -0.145522E-05  0.548E-03    0.40       3.7  T
   9    -42.5499130 -0.668131E-06  0.147E-03    0.40      13.6  T
  10    -42.5499131 -0.181426E-07  0.723E-04    0.40      27.7  T
  11    -42.5499131 -0.437142E-08  0.210E-04    0.40      95.1  T
     SCC iter.                  ...        0 min,  0.015 sec
     gradient                   ...        0 min,  0.013 sec
 * total energy  :   -42.0372061 Eh     change       -0.5426980E-01 Eh
   gradient norm :     0.2048378 Eh/α   predicted    -0.4584240E-01 ( -15.53%)
   displ. norm   :     0.6496765 α      lambda       -0.5157084E-01
   maximum displ.:     0.5022465 α      in ANC's #1, #55, #60, ...

........................................................................
.............................. CYCLE   13 ..............................
........................................................................

 iter      E             dE          RMSdq      gap      omega  full diag
   1    -42.5605933 -0.425606E+02  0.660E-01    0.32       0.0  T
   2    -42.5288402  0.317531E-01  0.121E+00    0.71       1.0  T
   3    -42.5660544 -0.372142E-01  0.275E-01    0.28       1.0  T
   4    -42.5665664 -0.512012E-03  0.138E-01    0.30       1.0  T
   5    -42.5669006 -0.334207E-03  0.312E-02    0.29       1.0  T
   6    -42.5669128 -0.122477E-04  0.177E-02    0.29       1.1  T
   7    -42.5669167 -0.389584E-05  0.829E-03    0.29       2.4  T
   8    -42.5669179 -0.120730E-05  0.232E-03    0.28       8.6  T
   9    -42.5669181 -0.142500E-06  0.119E-03    0.28      16.9  T
  10    -42.5669181 -0.268608E-07  0.538E-04    0.28      37.2  T
  11    -42.5669181 -0.345661E-08  0.136E-04    0.28     146.6  T
     SCC iter.                  ...        0 min,  0.015 sec
     gradient                   ...        0 min,  0.013 sec
 * total energy  :   -42.0663917 Eh     change       -0.2918564E-01 Eh
   gradient norm :     0.1215161 Eh/α   predicted    -0.3666894E-01 (  25.64%)
   displ. norm   :     0.1198299 α      lambda       -0.8879151E-02
   maximum displ.:     0.0583703 α      in ANC's #2, #50, #40, ...

........................................................................
.............................. CYCLE   14 ..............................
........................................................................

 iter      E             dE          RMSdq      gap      omega  full diag
   1    -42.5736563 -0.425737E+02  0.224E-01    0.29       0.0  T
   2    -42.5736569 -0.636341E-06  0.187E-01    0.30       1.0  T
   3    -42.5735360  0.120853E-03  0.169E-01    0.28       1.0  T
   4    -42.5739609 -0.424891E-03  0.101E-01    0.30       1.0  T
   5    -42.5740909 -0.129992E-03  0.560E-02    0.29       1.0  T
   6    -42.5741908 -0.998503E-04  0.527E-03    0.29       3.8  T
   7    -42.5741912 -0.409097E-06  0.314E-03    0.29       6.4  T
   8    -42.5741913 -0.916122E-07  0.144E-03    0.29      13.9  T
   9    -42.5741913 -0.397328E-07  0.310E-04    0.29      64.6  T
  10    -42.5741913 -0.307239E-09  0.122E-04    0.29     163.4  T
     SCC iter.                  ...        0 min,  0.014 sec
     gradient                   ...        0 min,  0.013 sec
 * total energy  :   -42.0726653 Eh     change       -0.6273558E-02 Eh
   gradient norm :     0.0866414 Eh/α   predicted    -0.4503685E-02 ( -28.21%)
   displ. norm   :     0.1678575 α      lambda       -0.9398437E-02
   maximum displ.:     0.0960690 α      in ANC's #2, #1, #33, ...

........................................................................
.............................. CYCLE   15 ..............................
........................................................................

 iter      E             dE          RMSdq      gap      omega  full diag
   1    -42.5793928 -0.425794E+02  0.219E-01    0.27       0.0  T
   2    -42.5799369 -0.544079E-03  0.129E-01    0.27       1.0  T
   3    -42.5800242 -0.873354E-04  0.747E-02    0.27       1.0  T
   4    -42.5799996  0.245964E-04  0.505E-02    0.27       1.0  T
   5    -42.5800084 -0.874252E-05  0.462E-02    0.28       1.0  T
   6    -42.5800597 -0.512824E-04  0.109E-02    0.27       1.8  T
   7    -42.5800634 -0.371307E-05  0.364E-03    0.27       5.5  T
   8    -42.5800636 -0.220300E-06  0.160E-03    0.27      12.5  T
   9    -42.5800636 -0.296043E-07  0.585E-04    0.27      34.2  T
  10    -42.5800636 -0.538129E-08  0.193E-04    0.27     103.6  T
     SCC iter.                  ...        0 min,  0.014 sec
     gradient                   ...        0 min,  0.013 sec
 * total energy  :   -42.0792605 Eh     change       -0.6595179E-02 Eh
   gradient norm :     0.0711948 Eh/α   predicted    -0.4832392E-02 ( -26.73%)
   displ. norm   :     0.1415836 α      lambda       -0.6448509E-02
   maximum displ.:     0.0491983 α      in ANC's #33, #2, #18, ...

........................................................................
.............................. CYCLE   16 ..............................
........................................................................

 iter      E             dE          RMSdq      gap      omega  full diag
   1    -42.5867256 -0.425867E+02  0.169E-01    0.25       0.0  T
   2    -42.5862377  0.487883E-03  0.205E-01    0.24       1.0  T
   3    -42.5869557 -0.717922E-03  0.119E-01    0.26       1.0  T
   4    -42.5871914 -0.235734E-03  0.542E-02    0.24       1.0  T
   5    -42.5871994 -0.799024E-05  0.332E-02    0.25       1.0  T
   6    -42.5872360 -0.365760E-04  0.105E-02    0.25       1.9  T
   7    -42.5872392 -0.327541E-05  0.256E-03    0.25       7.8  T
   8    -42.5872393 -0.452710E-07  0.114E-03    0.25      17.5  T
   9    -42.5872393 -0.128535E-07  0.406E-04    0.25      49.2  T
  10    -42.5872393 -0.271380E-08  0.126E-04    0.25     158.4  T
     SCC iter.                  ...        0 min,  0.014 sec
     gradient                   ...        0 min,  0.013 sec
 * total energy  :   -42.0840228 Eh     change       -0.4762373E-02 Eh
   gradient norm :     0.0725842 Eh/α   predicted    -0.3288953E-02 ( -30.94%)
   displ. norm   :     0.1691213 α      lambda       -0.6602865E-02
   maximum displ.:     0.0698376 α      in ANC's #33, #18, #36, ...

........................................................................
.............................. CYCLE   17 ..............................
........................................................................

 iter      E             dE          RMSdq      gap      omega  full diag
   1    -42.5981442 -0.425981E+02  0.187E-01    0.24       0.0  T
   2    -42.5972497  0.894500E-03  0.243E-01    0.22       1.0  T
   3    -42.5983975 -0.114781E-02  0.112E-01    0.24       1.0  T
   4    -42.5985456 -0.148163E-03  0.580E-02    0.22       1.0  T
   5    -42.5985631 -0.174712E-04  0.334E-02    0.23       1.0  T
   6    -42.5986032 -0.400507E-04  0.874E-03    0.22       2.3  T
   7    -42.5986054 -0.220475E-05  0.330E-03    0.22       6.1  T
   8    -42.5986055 -0.893956E-07  0.111E-03    0.22      18.1  T
   9    -42.5986055 -0.227059E-07  0.278E-04    0.22      71.9  T
  10    -42.5986055 -0.130041E-08  0.135E-04    0.22     148.2  T
     SCC iter.                  ...        0 min,  0.014 sec
     gradient                   ...        0 min,  0.013 sec
 * total energy  :   -42.0886883 Eh     change       -0.4665419E-02 Eh
   gradient norm :     0.0692824 Eh/α   predicted    -0.3396288E-02 ( -27.20%)
   displ. norm   :     0.1506538 α      lambda       -0.4537795E-02
   maximum displ.:     0.0605363 α      in ANC's #33, #18, #36, ...

........................................................................
.............................. CYCLE   18 ..............................
........................................................................

 iter      E             dE          RMSdq      gap      omega  full diag
   1    -42.6095400 -0.426095E+02  0.145E-01    0.22       0.0  T
   2    -42.6090929  0.447037E-03  0.170E-01    0.20       1.0  T
   3    -42.6095675 -0.474603E-03  0.929E-02    0.23       1.0  T
   4    -42.6096986 -0.131042E-03  0.325E-02    0.21       1.0  T
   5    -42.6096989 -0.370959E-06  0.171E-02    0.21       1.2  T
   6    -42.6097103 -0.113296E-04  0.567E-03    0.21       3.5  T
   7    -42.6097108 -0.524475E-06  0.277E-03    0.21       7.2  T
   8    -42.6097109 -0.874196E-07  0.752E-04    0.21      26.6  T
   9    -42.6097109 -0.100852E-07  0.172E-04    0.21     116.1  T
     SCC iter.                  ...        0 min,  0.012 sec
     gradient                   ...        0 min,  0.013 sec
 * total energy  :   -42.0918918 Eh     change       -0.3203574E-02 Eh
   gradient norm :     0.0603836 Eh/α   predicted    -0.2320453E-02 ( -27.57%)
   displ. norm   :     0.1265452 α      lambda       -0.3213371E-02
   maximum displ.:     0.0631867 α      in ANC's #1, #33, #18, ...

........................................................................
.............................. CYCLE   19 ..............................
........................................................................

 iter      E             dE          RMSdq      gap      omega  full diag
   1    -42.6188663 -0.426189E+02  0.118E-01    0.22       0.0  T
   2    -42.6188881 -0.217774E-04  0.866E-02    0.21       1.0  T
   3    -42.6189510 -0.629083E-04  0.598E-02    0.22       1.0  T
   4    -42.6189234  0.275825E-04  0.652E-02    0.20       1.0  T
   5    -42.6190155 -0.921131E-04  0.231E-02    0.21       1.0  T
   6    -42.6190307 -0.151648E-04  0.604E-03    0.21       3.3  T
   7    -42.6190313 -0.651086E-06  0.224E-03    0.21       8.9  T
   8    -42.6190314 -0.370823E-07  0.109E-03    0.21      18.4  T
   9    -42.6190314 -0.157963E-07  0.125E-04    0.21     160.1  T
  10    -42.6190314 -0.846256E-10  0.689E-05    0.21     290.2  T
     SCC iter.                  ...        0 min,  0.014 sec
     gradient                   ...        0 min,  0.013 sec
 * total energy  :   -42.0941442 Eh     change       -0.2252382E-02 Eh
   gradient norm :     0.0434755 Eh/α   predicted    -0.1632453E-02 ( -27.52%)
   displ. norm   :     0.0988107 α      lambda       -0.1979569E-02
   maximum displ.:     0.0654590 α      in ANC's #1, #18, #33, ...

........................................................................
.............................. CYCLE   20 ..............................
........................................................................

 iter      E             dE          RMSdq      gap      omega  full diag
   1    -42.6246616 -0.426247E+02  0.107E-01    0.21       0.0  T
   2    -42.6245645  0.970298E-04  0.106E-01    0.22       1.0  T
   3    -42.6247234 -0.158888E-03  0.765E-02    0.20       1.0  T
   4    -42.6248094 -0.859281E-04  0.372E-02    0.22       1.0  T
   5    -42.6248342 -0.248793E-04  0.192E-02    0.21       1.0  T
   6    -42.6248450 -0.107798E-04  0.394E-03    0.21       5.1  T
   7    -42.6248453 -0.327931E-06  0.138E-03    0.21      14.5  T
   8    -42.6248454 -0.154852E-07  0.656E-04    0.21      30.5  T
   9    -42.6248454 -0.252751E-08  0.136E-04    0.21     147.1  T
     SCC iter.                  ...        0 min,  0.013 sec
     gradient                   ...        0 min,  0.013 sec
 * total energy  :   -42.0955040 Eh     change       -0.1359791E-02 Eh
   gradient norm :     0.0320544 Eh/α   predicted    -0.9995248E-03 ( -26.49%)
   displ. norm   :     0.0716270 α      lambda       -0.1159753E-02
   maximum displ.:     0.0322432 α      in ANC's #1, #2, #18, ...
 * RMSD in coord.:     0.8785723 α      energy gain  -0.9821095E+01 Eh

generating ANC from model Hessian ...
Using Lindh-Hessian (1995)
 Shifting diagonal of input Hessian by    1.0557463111660717E-002
 Lowest  eigenvalues of input Hessian
    0.010000    0.010107    0.000000    0.000000    0.000000    0.000000
    0.000000    0.000000    0.013461    0.014560    0.017155    0.019540
    0.021260    0.023845    0.024762    0.026529    0.029216    0.035337
 Highest eigenvalues
    2.122000    2.184347    2.206138    2.429484    2.518998    3.165779


........................................................................
.............................. CYCLE   21 ..............................
........................................................................

 iter      E             dE          RMSdq      gap      omega  full diag
   1    -42.6266248 -0.426266E+02  0.865E-02    0.21       0.0  T
   2    -42.6264517  0.173137E-03  0.103E-01    0.23       1.0  T
   3    -42.6266286 -0.176874E-03  0.602E-02    0.21       1.0  T
   4    -42.6266828 -0.542139E-04  0.273E-02    0.22       1.0  T
   5    -42.6266989 -0.160970E-04  0.120E-02    0.21       1.7  T
   6    -42.6267034 -0.454103E-05  0.189E-03    0.21      10.6  T
   7    -42.6267035 -0.537349E-07  0.100E-03    0.21      19.9  T
   8    -42.6267035 -0.540950E-08  0.408E-04    0.21      49.1  T
   9    -42.6267035 -0.259836E-08  0.125E-04    0.21     159.8  T
     SCC iter.                  ...        0 min,  0.013 sec
     gradient                   ...        0 min,  0.013 sec
 * total energy  :   -42.0963399 Eh     change       -0.8358651E-03 Eh
   gradient norm :     0.0287228 Eh/α   predicted     0.0000000E+00 (-100.00%)
   displ. norm   :     0.3011372 α      lambda       -0.4142874E-02
   maximum displ.:     0.1749449 α      in ANC's #10, #8, #6, ...

........................................................................
.............................. CYCLE   22 ..............................
........................................................................

 iter      E             dE          RMSdq      gap      omega  full diag
   1    -42.6219677 -0.426220E+02  0.241E-01    0.21       0.0  T
   2    -42.6219544  0.132997E-04  0.139E-01    0.21       1.0  T
   3    -42.6209998  0.954543E-03  0.213E-01    0.25       1.0  T
   4    -42.6219056 -0.905773E-03  0.605E-02    0.20       1.0  T
   5    -42.6220316 -0.125944E-03  0.200E-02    0.22       1.0  T
   6    -42.6220442 -0.126733E-04  0.551E-03    0.21       3.6  T
   7    -42.6220446 -0.416848E-06  0.288E-03    0.21       6.9  T
   8    -42.6220448 -0.105972E-06  0.891E-04    0.21      22.4  T
   9    -42.6220448 -0.117015E-07  0.161E-04    0.21     124.3  T
     SCC iter.                  ...        0 min,  0.013 sec
     gradient                   ...        0 min,  0.013 sec
 * total energy  :   -42.0995870 Eh     change       -0.3247132E-02 Eh
   gradient norm :     0.0141198 Eh/α   predicted    -0.2259617E-02 ( -30.41%)
   displ. norm   :     0.4553634 α      lambda       -0.3510909E-02
   maximum displ.:     0.2657716 α      in ANC's #10, #8, #6, ...

........................................................................
.............................. CYCLE   23 ..............................
........................................................................

 iter      E             dE          RMSdq      gap      omega  full diag
   1    -42.6158572 -0.426159E+02  0.359E-01    0.21       0.0  T
   2    -42.6155934  0.263766E-03  0.217E-01    0.20       1.0  T
   3    -42.6125033  0.309009E-02  0.397E-01    0.30       1.0  T
   4    -42.6157376 -0.323421E-02  0.818E-02    0.20       1.0  T
   5    -42.6160009 -0.263330E-03  0.229E-02    0.21       1.0  T
   6    -42.6160146 -0.137563E-04  0.815E-03    0.21       2.5  T
   7    -42.6160156 -0.919317E-06  0.410E-03    0.21       4.9  T
   8    -42.6160158 -0.229369E-06  0.983E-04    0.21      20.3  T
   9    -42.6160158 -0.156625E-07  0.223E-04    0.21      89.8  T
     SCC iter.                  ...        0 min,  0.013 sec
     gradient                   ...        0 min,  0.013 sec
 * total energy  :   -42.1015545 Eh     change       -0.1967473E-02 Eh
   gradient norm :     0.0202909 Eh/α   predicted    -0.2119459E-02 (   7.72%)
   displ. norm   :     0.1241219 α      lambda       -0.7717048E-03
   maximum displ.:     0.0795363 α      in ANC's #6, #10, #5, ...

........................................................................
.............................. CYCLE   24 ..............................
........................................................................

 iter      E             dE          RMSdq      gap      omega  full diag
   1    -42.6200166 -0.426200E+02  0.667E-02    0.21       0.0  T
   2    -42.6200176 -0.999757E-06  0.390E-02    0.21       1.0  T
   3    -42.6199680  0.496538E-04  0.412E-02    0.20       1.0  T
   4    -42.6200132 -0.452719E-04  0.159E-02    0.21       1.3  T
   5    -42.6200197 -0.646764E-05  0.522E-03    0.21       3.8  T
   6    -42.6200204 -0.650908E-06  0.158E-03    0.21      12.7  T
   7    -42.6200204 -0.333744E-07  0.686E-04    0.21      29.1  T
   8    -42.6200204 -0.516234E-08  0.112E-04    0.21     178.4  T
     SCC iter.                  ...        0 min,  0.011 sec
     gradient                   ...        0 min,  0.013 sec
 * total energy  :   -42.1021545 Eh     change       -0.6000106E-03 Eh
   gradient norm :     0.0118326 Eh/α   predicted    -0.3917972E-03 ( -34.70%)
   displ. norm   :     0.2033410 α      lambda       -0.7430366E-03
   maximum displ.:     0.1064736 α      in ANC's #6, #5, #10, ...

........................................................................
.............................. CYCLE   25 ..............................
........................................................................

 iter      E             dE          RMSdq      gap      omega  full diag
   1    -42.6251055 -0.426251E+02  0.135E-01    0.21       0.0  T
   2    -42.6250932  0.123189E-04  0.814E-02    0.21       1.0  T
   3    -42.6246707  0.422458E-03  0.133E-01    0.24       1.0  T
   4    -42.6250975 -0.426792E-03  0.224E-02    0.21       1.0  T
   5    -42.6251142 -0.166746E-04  0.470E-03    0.21       4.3  T
   6    -42.6251149 -0.771892E-06  0.137E-03    0.21      14.6  T
   7    -42.6251150 -0.238641E-07  0.673E-04    0.21      29.7  T
   8    -42.6251150 -0.282043E-08  0.235E-04    0.21      85.0  T
     SCC iter.                  ...        0 min,  0.011 sec
     gradient                   ...        0 min,  0.013 sec
 * total energy  :   -42.1026234 Eh     change       -0.4688831E-03 Eh
   gradient norm :     0.0052999 Eh/α   predicted    -0.3869178E-03 ( -17.48%)
   displ. norm   :     0.1148554 α      lambda       -0.1939176E-03
   maximum displ.:     0.0614394 α      in ANC's #5, #8, #9, ...

........................................................................
.............................. CYCLE   26 ..............................
........................................................................

 iter      E             dE          RMSdq      gap      omega  full diag
   1    -42.6265780 -0.426266E+02  0.871E-02    0.21       0.0  T
   2    -42.6265706  0.740992E-05  0.525E-02    0.21       1.0  T
   3    -42.6263517  0.218912E-03  0.950E-02    0.23       1.0  T
   4    -42.6265786 -0.226872E-03  0.778E-03    0.21       2.6  T
   5    -42.6265805 -0.191567E-05  0.224E-03    0.21       8.9  T
   6    -42.6265807 -0.181734E-06  0.588E-04    0.21      34.0  T
   7    -42.6265807 -0.407429E-08  0.308E-04    0.21      64.9  T
     SCC iter.                  ...        0 min,  0.010 sec
     gradient                   ...        0 min,  0.013 sec
 * total energy  :   -42.1027713 Eh     change       -0.1479833E-03 Eh
   gradient norm :     0.0042115 Eh/α   predicted    -0.9823937E-04 ( -33.61%)
   displ. norm   :     0.1602335 α      lambda       -0.2118356E-03
   maximum displ.:     0.0952445 α      in ANC's #5, #8, #9, ...

........................................................................
.............................. CYCLE   27 ..............................
........................................................................

 iter      E             dE          RMSdq      gap      omega  full diag
   1    -42.6272879 -0.426273E+02  0.115E-01    0.21       0.0  T
   2    -42.6272796  0.837053E-05  0.686E-02    0.21       1.0  T
   3    -42.6269353  0.344264E-03  0.117E-01    0.24       1.0  T
   4    -42.6272907 -0.355350E-03  0.488E-03    0.21       4.1  T
   5    -42.6272911 -0.486890E-06  0.260E-03    0.21       7.7  T
   6    -42.6272914 -0.218258E-06  0.766E-04    0.21      26.1  T
   7    -42.6272914 -0.214792E-08  0.398E-04    0.21      50.2  T
     SCC iter.                  ...        0 min,  0.010 sec
     gradient                   ...        0 min,  0.013 sec
 * total energy  :   -42.1029163 Eh     change       -0.1449122E-03 Eh
   gradient norm :     0.0042108 Eh/α   predicted    -0.1086384E-03 ( -25.03%)
   displ. norm   :     0.1190251 α      lambda       -0.1034197E-03
   maximum displ.:     0.0656691 α      in ANC's #5, #1, #9, ...

........................................................................
.............................. CYCLE   28 ..............................
........................................................................

 iter      E             dE          RMSdq      gap      omega  full diag
   1    -42.6269538 -0.426270E+02  0.745E-02    0.21       0.0  T
   2    -42.6269543 -0.503329E-06  0.438E-02    0.21       1.0  T
   3    -42.6269508  0.346213E-05  0.116E-02    0.21       1.7  T
   4    -42.6269535 -0.272045E-05  0.597E-03    0.21       3.4  T
   5    -42.6269545 -0.938294E-06  0.106E-03    0.21      18.9  T
   6    -42.6269545 -0.123550E-07  0.559E-04    0.21      35.8  T
   7    -42.6269545  0.568704E-09  0.330E-04    0.21      60.6  T
     SCC iter.                  ...        0 min,  0.010 sec
     gradient                   ...        0 min,  0.013 sec
 * total energy  :   -42.1029821 Eh     change       -0.6580452E-04 Eh
   gradient norm :     0.0032021 Eh/α   predicted    -0.5261661E-04 ( -20.04%)
   displ. norm   :     0.1043113 α      lambda       -0.5550969E-04
   maximum displ.:     0.0640123 α      in ANC's #5, #1, #8, ...

........................................................................
.............................. CYCLE   29 ..............................
........................................................................

 iter      E             dE          RMSdq      gap      omega  full diag
   1    -42.6259038 -0.426259E+02  0.571E-02    0.21       0.0  T
   2    -42.6259041 -0.335809E-06  0.335E-02    0.21       1.0  T
   3    -42.6258991  0.497714E-05  0.149E-02    0.22       1.3  T
   4    -42.6259031 -0.396065E-05  0.654E-03    0.21       3.1  T
   5    -42.6259043 -0.123098E-05  0.138E-03    0.21      14.5  T
   6    -42.6259044 -0.428550E-07  0.628E-04    0.21      31.8  T
   7    -42.6259044 -0.424379E-08  0.323E-04    0.21      61.9  T
     SCC iter.                  ...        0 min,  0.010 sec
     gradient                   ...        0 min,  0.013 sec
 * total energy  :   -42.1030039 Eh     change       -0.2180688E-04 Eh
   gradient norm :     0.0048359 Eh/α   predicted    -0.2806146E-04 (  28.68%)
   displ. norm   :     0.0463091 α      lambda       -0.4142366E-04
   maximum displ.:     0.0274561 α      in ANC's #1, #6, #4, ...

........................................................................
.............................. CYCLE   30 ..............................
........................................................................

 iter      E             dE          RMSdq      gap      omega  full diag
   1    -42.6264150 -0.426264E+02  0.200E-02    0.21       0.0  T
   2    -42.6264082  0.676302E-05  0.192E-02    0.22       1.0  T
   3    -42.6264097 -0.147604E-05  0.188E-02    0.21       1.1  T
   4    -42.6264160 -0.630686E-05  0.446E-03    0.21       4.5  T
   5    -42.6264164 -0.469489E-06  0.166E-03    0.21      12.0  T
   6    -42.6264165 -0.880880E-07  0.571E-04    0.21      35.1  T
   7    -42.6264165 -0.245509E-08  0.299E-04    0.21      66.9  T
     SCC iter.                  ...        0 min,  0.010 sec
     gradient                   ...        0 min,  0.013 sec
 * total energy  :   -42.1030256 Eh     change       -0.2172476E-04 Eh
   gradient norm :     0.0023009 Eh/α   predicted    -0.2076447E-04 (  -4.42%)
   displ. norm   :     0.0398627 α      lambda       -0.2353403E-04
   maximum displ.:     0.0264178 α      in ANC's #1, #4, #8, ...

   *** GEOMETRY OPTIMIZATION CONVERGED AFTER 30 ITERATIONS ***

------------------------------------------------------------------------
 total energy gain   :        -9.8286166 Eh    -6167.5500 kcal/mol
 total RMSD          :         0.9349598 a0        0.4948 Å
 total power (kW/mol):      -860.1676439 (step)********** (real)
------------------------------------------------------------------------

 ANCopt (total)                0 d,  0 h,  0 min,  0.963 sec
 optimizer setup                ...        0 min,  0.000 sec (  0.034%)
 model hessian                  ...        0 min,  0.013 sec (  1.337%)
 ANC generation                 ...        0 min,  0.002 sec (  0.181%)
 coordinate transformation      ...        0 min,  0.000 sec (  0.029%)
 single point calculation       ...        0 min,  0.940 sec ( 97.642%)
 optimization log               ...        0 min,  0.003 sec (  0.290%)
 hessian update                 ...        0 min,  0.000 sec (  0.042%)
 rational function              ...        0 min,  0.003 sec (  0.296%)

================
 final structure:
================
25
 xtb: 6.6.1 (8d0f1dd)
C            3.25315570840306        1.24022001446061        0.01824117400285
N            2.31881562489185        0.14827973828559       -0.04636845595021
C            2.61041841954619       -1.14640623459705       -0.09872664295565
N            1.47558886889927       -1.87550311830408       -0.13640293784171
C            0.41441819904690       -1.00432977127477       -0.10280812113860
C            0.95068789126158        0.27672658275373       -0.04642184233387
C            0.12216908859227        1.46236449225387       -0.02365441909047
O            0.51856552889223        2.60539953078806       -0.01210398197833
N           -1.23692383548223        1.12697767806770       -0.02203999993727
C           -2.19292784541921        2.23010895467848        0.02298260876140
C           -1.81075581828449       -0.11367840951625       -0.05592395577277
O           -2.99161522919935       -0.30535511225700       -0.03983283845151
N           -0.91432042580580       -1.26518254433922       -0.12123856567780
C           -1.47233724397663       -2.48250557573371       -0.19835251586071
H            3.74029106171398        1.26242674748272        0.99457682962550
H            4.01564200748137        1.13271935667894       -0.75215536030527
H            2.71144243672986        2.17490735864159       -0.12509130293004
H            3.59996212591183       -1.56097752679258       -0.11140230692205
H           -1.63217058831718        3.16135591610883        0.02880797177536
H           -2.84695746843907        2.18774531293985       -0.84677957312182
H           -2.80429329423551        2.15148331571711        0.92104528756559
H           -2.69210107733703       -4.80820438941050        1.41311264155934
H           -0.86820644277593       -3.36388360947784       -0.24518047002964
H           -2.54309948526137       -2.53266284503937       -0.21235517217027
H            1.43498330726351       -2.88378732051515       -0.17075643292213

 Bond Distances (Angstroems)
 ---------------------------
C1-N2=1.4386         C1-H15=1.0913        C1-H16=1.0892        C1-H17=1.0898        N2-C1=1.4386         N2-C3=1.3282         
N2-C6=1.3741         C3-N2=1.3282         C3-N4=1.3494         C3-H18=1.0730        N4-C3=1.3494         N4-C5=1.3734         
N4-H25=1.0097        C5-N4=1.3734         C5-C6=1.3899         C5-N13=1.3542        C6-N2=1.3741         C6-C5=1.3899         
C6-C7=1.4466         C7-C6=1.4466         C7-O8=1.2099         C7-N9=1.3999         O8-C7=1.2099         N9-C7=1.3999         
N9-C10=1.4604        N9-C11=1.3674        C10-N9=1.4604        C10-H19=1.0871       C10-H20=1.0891       C10-H21=1.0893       
C11-N9=1.3674        C11-O12=1.1964       C11-N13=1.4608       O12-C11=1.1964       N13-C5=1.3542        N13-C11=1.4608       
N13-C14=1.3413       C14-N13=1.3413       C14-H23=1.0696       C14-H24=1.0720       H15-C1=1.0913        H16-C1=1.0892        
H17-C1=1.0898        H18-C3=1.0730        H19-C10=1.0871       H20-C10=1.0891       H21-C10=1.0893       H23-C14=1.0696       
H24-C14=1.0720       H25-N4=1.0097        
 C  H  Rav=1.0834 sigma=0.0085  Rmin=1.0696  Rmax=1.0913     9
 C  C  Rav=1.4183 sigma=0.0283  Rmin=1.3899  Rmax=1.4466     2
 N  H  Rav=1.0097 sigma=0.0000  Rmin=1.0097  Rmax=1.0097     1
 N  C  Rav=1.3861 sigma=0.0452  Rmin=1.3282  Rmax=1.4608    11
 O  C  Rav=1.2031 sigma=0.0067  Rmin=1.1964  Rmax=1.2099     2

 selected bond angles (degree)
 --------------------
H15-C1-N2=110.21               H16-C1-N2=110.36               H16-C1-H15=108.80              H17-C1-N2=108.80               
H17-C1-H15=108.79              H17-C1-H16=109.85              C3-N2-C1=126.80                C6-N2-C1=125.15                
C6-N2-C3=108.04                N4-C3-N2=110.07                H18-C3-N2=125.42               H18-C3-N4=124.51               
C5-N4-C3=107.84                H25-N4-C3=125.05               H25-N4-C5=127.10               C6-C5-N4=106.71                
N13-C5-N4=129.47               N13-C5-C6=123.82               C5-C6-N2=107.34                C7-C6-N2=130.30                
C7-C6-C5=122.35                O8-C7-C6=125.93                N9-C7-C6=111.08                N9-C7-O8=122.99                
C10-N9-C7=117.04               C11-N9-C7=128.67               C11-N9-C10=114.29              H19-C10-N9=108.03              
H20-C10-N9=109.82              H20-C10-H19=110.33             H21-C10-N9=109.77              H21-C10-H19=110.30             
H21-C10-H20=108.58             

 selected dihedral angles (degree)
 ---------------------------------
C3-N2-C1-H15=289.43           C3-N2-C1-H16= 49.63           C3-N2-C1-H17=170.22           C6-N2-C1-H15=108.51           
C6-N2-C1-H16=228.71           C6-N2-C1-H17=349.31           N4-C3-N2-C1=179.35            N4-C3-N2-C6=  0.14            
H18-C3-N2-C1=359.25           H18-C3-N2-C6=180.04           C5-N4-C3-N2=359.83            C5-N4-C3-H18=179.93           
H25-N4-C3-N2=180.56           H25-N4-C3-H18=  0.66          C6-C5-N4-C3=  0.13            C6-C5-N4-H25=179.38           
N13-C5-N4-C3=179.97           N13-C5-N4-H25=359.22          C5-C6-N2-C1=180.71            C5-C6-N2-C3=359.94            
C7-C6-N2-C1=  1.96            C7-C6-N2-C3=181.19            N2-C6-C5-N4=359.96            N2-C6-C5-N13=180.10           
C7-C6-C5-N4=178.83            C7-C6-C5-N13=358.98           O8-C7-C6-N2=  0.75            O8-C7-C6-C5=182.16            
N9-C7-C6-N2=180.49            N9-C7-C6-C5=  1.90            C10-N9-C7-C6=178.99           C10-N9-C7-O8=358.75           
C11-N9-C7-C6=359.07           C11-N9-C7-O8=178.82           H19-C10-N9-C7=  1.08          H19-C10-N9-C11=181.01         
H20-C10-N9-C7=121.46          H20-C10-N9-C11=301.39         H21-C10-N9-C7=240.76          H21-C10-N9-C11= 60.70         
           -------------------------------------------------
          |                Final Singlepoint                |
           -------------------------------------------------

          ...................................................
          :                      SETUP                      :
          :.................................................:
          :  # basis functions                  67          :
          :  # atomic orbitals                  67          :
          :  # shells                           39          :
          :  # electrons                        74          :
          :  max. iterations                   250          :
          :  Hamiltonian                  GFN2-xTB          :
          :  restarted?                      false          :
          :  GBSA solvation                  false          :
          :  PC potential                    false          :
          :  electronic temp.         5000.0000000     K    :
          :  accuracy                    1.0000000          :
          :  -> integral cutoff          0.2500000E+02      :
          :  -> integral neglect         0.1000000E-07      :
          :  -> SCF convergence          0.1000000E-05 Eh   :
          :  -> wf. convergence          0.1000000E-03 e    :
          :  Broyden damping             0.4000000          :
          ...................................................

 iter      E             dE          RMSdq      gap      omega  full diag
   1    -42.6264165 -0.426264E+02  0.575E-05    0.21       0.0  T
   2    -42.6264165  0.209468E-10  0.508E-05    0.21     393.5  T
   3    -42.6264165 -0.363016E-10  0.402E-05    0.21     497.2  T

   *** convergence criteria satisfied after 3 iterations ***

         #    Occupation            Energy/Eh            Energy/eV
      -------------------------------------------------------------
         1        2.0000           -0.9188481             -25.0031
       ...           ...                  ...                  ...
        31        1.9996           -0.6210999             -16.9010
        32        1.9986           -0.6001814             -16.3318
        33        1.9976           -0.5913783             -16.0922
        34        1.9967           -0.5867653             -15.9667
        35        1.9879           -0.5658407             -15.3973
        36        1.9867           -0.5643785             -15.3575
        37        1.0862           -0.4878413             -13.2748 (HOMO)
        38        0.8390           -0.4799633             -13.0605 (LUMO)
        39        0.0965           -0.4378935             -11.9157
        40        0.0099           -0.4010743             -10.9138
        41        0.0019           -0.3752344             -10.2106
        42        0.0000           -0.2904830              -7.9044
       ...           ...                  ...                  ...
        67                          0.5544817              15.0882
      -------------------------------------------------------------
                  HL-Gap            0.0078781 Eh            0.2144 eV
             Fermi-level           -0.4851062 Eh          -13.2004 eV

 SCC (total)                   0 d,  0 h,  0 min,  0.023 sec
 SCC setup                      ...        0 min,  0.000 sec (  0.819%)
 Dispersion                     ...        0 min,  0.000 sec (  0.855%)
 classical contributions        ...        0 min,  0.000 sec (  0.307%)
 integral evaluation            ...        0 min,  0.005 sec ( 21.367%)
 iterations                     ...        0 min,  0.005 sec ( 20.708%)
 molecular gradient             ...        0 min,  0.013 sec ( 55.303%)
 printout                       ...        0 min,  0.000 sec (  0.580%)

         :::::::::::::::::::::::::::::::::::::::::::::::::::::
         ::                     SUMMARY                     ::
         :::::::::::::::::::::::::::::::::::::::::::::::::::::
         :: total energy             -42.103025599637 Eh    ::
         :: gradient norm              0.002301938002 Eh/a0 ::
         :: HOMO-LUMO gap              0.214373678349 eV    ::
         ::.................................................::
         :: SCC energy               -42.626416541689 Eh    ::
         :: -> isotropic ES            0.139921082628 Eh    ::
         :: -> anisotropic ES         -0.005125212463 Eh    ::
         :: -> anisotropic XC          0.012897170396 Eh    ::
         :: -> dispersion             -0.022646939129 Eh    ::
         :: repulsion energy           0.523306383531 Eh    ::
         :: add. restraining           0.000000046292 Eh    ::
         :: total charge               0.999999999984 e     ::
         :::::::::::::::::::::::::::::::::::::::::::::::::::::

           -------------------------------------------------
          |                Property Printout                |
           -------------------------------------------------

    * Orbital Energies and Occupations

         #    Occupation            Energy/Eh            Energy/eV
      -------------------------------------------------------------
         1        2.0000           -0.9188481             -25.0031
       ...           ...                  ...                  ...
        25        2.0000           -0.6703727             -18.2418
        26        2.0000           -0.6702247             -18.2377
        27        2.0000           -0.6612461             -17.9934
        28        1.9999           -0.6374185             -17.3450
        29        1.9998           -0.6334287             -17.2365
        30        1.9998           -0.6295676             -17.1314
        31        1.9996           -0.6210999             -16.9010
        32        1.9986           -0.6001814             -16.3318
        33        1.9976           -0.5913783             -16.0922
        34        1.9967           -0.5867653             -15.9667
        35        1.9879           -0.5658407             -15.3973
        36        1.9867           -0.5643785             -15.3575
        37        1.0862           -0.4878413             -13.2748 (HOMO)
        38        0.8390           -0.4799633             -13.0605 (LUMO)
        39        0.0965           -0.4378935             -11.9157
        40        0.0099           -0.4010743             -10.9138
        41        0.0019           -0.3752344             -10.2106
        42        0.0000           -0.2904830              -7.9044
        43                         -0.2154258              -5.8620
        44                         -0.2024060              -5.5077
        45                         -0.1526792              -4.1546
        46                         -0.1366208              -3.7176
        47                         -0.0700970              -1.9074
        48                         -0.0420670              -1.1447
       ...                                ...                  ...
        67                          0.5544817              15.0882
      -------------------------------------------------------------
                  HL-Gap            0.0078781 Eh            0.2144 eV
             Fermi-level           -0.4851062 Eh          -13.2004 eV

     #   Z          covCN         q      C6AA      α(0)
     1   6 C        3.691    -0.096    22.537     6.793
     2   7 N        2.831     0.086    19.752     6.601
     3   6 C        3.051     0.054    26.734     8.480
     4   7 N        2.790    -0.056    22.330     7.018
     5   6 C        3.038     0.093    25.901     8.347
     6   6 C        3.114    -0.016    28.250     8.707
     7   6 C        2.763     0.267    22.493     7.767
     8   8 O        0.858    -0.364    20.978     6.141
     9   7 N        2.744    -0.078    22.756     7.085
    10   6 C        3.713    -0.064    21.872     6.682
    11   6 C        2.734     0.311    21.721     7.630
    12   8 O        0.859    -0.336    20.436     6.061
    13   7 N        2.735     0.009    21.099     6.822
    14   6 C        2.797    -0.057    29.390     8.881
    15   1 H        0.924     0.111     1.689     2.032
    16   1 H        0.925     0.107     1.721     2.052
    17   1 H        0.925     0.139     1.465     1.893
    18   1 H        0.926     0.128     1.548     1.945
    19   1 H        0.925     0.117     1.642     2.004
    20   1 H        0.925     0.099     1.792     2.093
    21   1 H        0.925     0.099     1.794     2.095
    22   1 H        0.000    -0.008     7.963     5.160
    23   1 H        0.927     0.090     1.881     2.144
    24   1 H        0.926     0.135     1.497     1.913
    25   1 H        0.860     0.230     0.965     1.539

 Mol. C6AA /au·bohr⁶  :       6830.398264
 Mol. C8AA /au·bohr⁸  :     155798.386482
 Mol. α(0) /au        :        127.885508


Wiberg/Mayer (AO) data.
largest (>0.10) Wiberg bond orders for each atom

 ---------------------------------------------------------------------------
     #   Z sym  total        # sym  WBO       # sym  WBO       # sym  WBO
 ---------------------------------------------------------------------------
     1   6 C    3.912 --     2 N    0.984    16 H    0.963    17 H    0.959
                            15 H    0.954
     2   7 N    3.674 --     3 C    1.386     6 C    1.165     1 C    0.984
     3   6 C    3.844 --     2 N    1.386     4 N    1.289    18 H    0.951
     4   7 N    3.555 --     3 C    1.289     5 C    1.166    25 H    0.918
     5   6 C    3.886 --     6 C    1.339     4 N    1.166    13 N    1.164
     6   6 C    3.858 --     5 C    1.339     2 N    1.165     7 C    1.074
     7   6 C    3.917 --     8 O    1.676     9 N    1.081     6 C    1.074
     8   8 O    1.989 --     7 C    1.676     9 N    0.138
     9   7 N    3.569 --    11 C    1.170     7 C    1.081    10 C    0.962
                            12 O    0.151     8 O    0.138
    10   6 C    3.910 --    19 H    0.968    20 H    0.966    21 H    0.965
                             9 N    0.962
    11   6 C    3.925 --    12 O    1.730     9 N    1.170    13 N    0.930
    12   8 O    2.058 --    11 C    1.730     9 N    0.151
    13   7 N    3.623 --    14 C    1.304     5 C    1.164    11 C    0.930
    14   6 C    3.350 --    13 N    1.304    23 H    0.969    24 H    0.957
    15   1 H    0.984 --     1 C    0.954
    16   1 H    0.986 --     1 C    0.963
    17   1 H    0.980 --     1 C    0.959
    18   1 H    0.982 --     3 C    0.951
    19   1 H    0.985 --    10 C    0.968
    20   1 H    0.986 --    10 C    0.966
    21   1 H    0.986 --    10 C    0.965
    22   1 H    0.015
    23   1 H    0.991 --    14 C    0.969
    24   1 H    0.981 --    14 C    0.957
    25   1 H    0.946 --     4 N    0.918
 ---------------------------------------------------------------------------

Topologies differ in total number of bonds
Writing topology from bond orders to xtbtopo.mol

molecular dipole:
                 x           y           z       tot (Debye)
 q only:        2.702      -1.630      -0.189
   full:        2.977      -2.217      -0.197       9.448
molecular quadrupole (traceless):
                xx          xy          yy          xz          yz          zz
 q only:       14.468      -7.993       2.963      -0.049       1.815     -17.431
  q+dip:       12.410     -10.993       2.904      -0.117       1.853     -15.315
   full:       11.280     -10.882       1.892      -0.106       1.764     -13.172

           -------------------------------------------------
          |                Geometry Summary                 |
           -------------------------------------------------

      molecular mass/u    :      195.1988581
   center of mass at/Å    :        0.0414874       0.0672262      -0.0528594
  moments of inertia/u·Å² :        0.4908606E+03   0.7238565E+03   0.1202965E+04
rotational constants/cm⁻¹ :        0.3434301E-01   0.2328864E-01   0.1401340E-01

 * 23 selected distances

     #   Z          #   Z                                           value/Å
     1   6 C        2   7 N                                       1.4385756
     2   7 N        3   6 C                                       1.3281512
     3   6 C        4   7 N                                       1.3493851
     4   7 N        5   6 C                                       1.3733736
     2   7 N        6   6 C                                       1.3741443
     5   6 C        6   6 C                                       1.3899174
     7   6 C        8   8 O                                       1.2098731
     7   6 C        9   7 N                                       1.3998646
     9   7 N       10   6 C                                       1.4604348 (max)
     9   7 N       11   6 C                                       1.3673548
    11   6 C       12   8 O                                       1.1964230
     5   6 C       13   7 N                                       1.3542269
    13   7 N       14   6 C                                       1.3413445
     1   6 C       15   1 H                                       1.0913412
     1   6 C       16   1 H                                       1.0892441
     1   6 C       17   1 H                                       1.0897881
     3   6 C       18   1 H                                       1.0729525
    10   6 C       19   1 H                                       1.0870620
    10   6 C       20   1 H                                       1.0890528
    10   6 C       21   1 H                                       1.0892504
    14   6 C       23   1 H                                       1.0695767
    14   6 C       24   1 H                                       1.0720279
     4   7 N       25   1 H                                       1.0096862 (min)

 * 5 distinct bonds (by element types)

   Z      Z             #   av. dist./Å        max./Å        min./Å
   1 H    6 C           9     1.0833662     1.0913412     1.0695767
   6 C    6 C           1     1.3899174     1.3899174     1.3899174
   1 H    7 N           1     1.0096862     1.0096862     1.0096862
   6 C    7 N          10     1.3786855     1.4604348     1.3281512
   6 C    8 O           2     1.2031481     1.2098731     1.1964230


optimized geometry written to: xtbopt.xyz


           -------------------------------------------------
          | TOTAL ENERGY              -42.103025599637 Eh   |
          | GRADIENT NORM               0.002301938002 Eh/α |
          | HOMO-LUMO GAP               0.214373678349 eV   |
           -------------------------------------------------

------------------------------------------------------------------------
 * finished run on 2024/06/05 at 20:00:12.353     
------------------------------------------------------------------------
 total:
 * wall-time:     0 d,  0 h,  0 min,  1.055 sec
 *  cpu-time:     0 d,  0 h,  0 min,  1.037 sec
 * ratio c/w:     0.984 speedup
 SCF:
 * wall-time:     0 d,  0 h,  0 min,  0.037 sec
 *  cpu-time:     0 d,  0 h,  0 min,  0.037 sec
 * ratio c/w:     1.000 speedup
 ANC optimizer:
 * wall-time:     0 d,  0 h,  0 min,  0.990 sec
 *  cpu-time:     0 d,  0 h,  0 min,  0.987 sec
 * ratio c/w:     0.996 speedup

