      -----------------------------------------------------------      
     |                   =====================                   |     
     |                           x T B                           |     
     |                   =====================                   |     
     |                         S. Grimme                         |     
     |          Mulliken Center for Theoretical Chemistry        |     
     |                    University of Bonn                     |     
      -----------------------------------------------------------      

   * xtb version 6.6.1 (8d0f1dd) compiled by 'conda@1efc2f54142f' on 2023-08-01

   xtb is free software: you can redistribute it and/or modify it under
   the terms of the GNU Lesser General Public License as published by
   the Free Software Foundation, either version 3 of the License, or
   (at your option) any later version.
   
   xtb is distributed in the hope that it will be useful,
   but WITHOUT ANY WARRANTY; without even the implied warranty of
   MERCHANTABILITY or FITNESS FOR A PARTICULAR PURPOSE.  See the
   GNU Lesser General Public License for more details.
   
   Cite this work as:
   * C. Bannwarth, E. Caldeweyher, S. Ehlert, A. Hansen, P. Pracht,
     J. Seibert, S. Spicher, S. Grimme, WIREs Comput. Mol. Sci., 2020, 11,
     e01493. DOI: 10.1002/wcms.1493
   
   for GFN2-xTB:
   * C. Bannwarth, S. Ehlert and S. Grimme., J. Chem. Theory Comput., 2019,
     15, 1652-1671. DOI: 10.1021/acs.jctc.8b01176
   for GFN1-xTB:
   * S. Grimme, C. Bannwarth, P. Shushkov, J. Chem. Theory Comput., 2017,
     13, 1989-2009. DOI: 10.1021/acs.jctc.7b00118
   for GFN0-xTB:
   * P. Pracht, E. Caldeweyher, S. Ehlert, S. Grimme, ChemRxiv, 2019, preprint.
     DOI: 10.26434/chemrxiv.8326202.v1
   for GFN-FF:
   * S. Spicher and S. Grimme, Angew. Chem. Int. Ed., 2020, 59, 15665-15673.
     DOI: 10.1002/anie.202004239
   
   for ALPB and GBSA implicit solvation:
   * S. Ehlert, M. Stahn, S. Spicher, S. Grimme, J. Chem. Theory Comput.,
     2021, 17, 4250-4261. DOI: 10.1021/acs.jctc.1c00471
   
   for DFT-D4:
   * E. Caldeweyher, C. Bannwarth and S. Grimme, J. Chem. Phys., 2017,
     147, 034112. DOI: 10.1063/1.4993215
   * E. Caldeweyher, S. Ehlert, A. Hansen, H. Neugebauer, S. Spicher,
     C. Bannwarth and S. Grimme, J. Chem. Phys., 2019, 150, 154122.
     DOI: 10.1063/1.5090222
   * E. Caldeweyher, J.-M. Mewes, S. Ehlert and S. Grimme, Phys. Chem. Chem. Phys.
     2020, 22, 8499-8512. DOI: 10.1039/D0CP00502A
   
   for sTDA-xTB:
   * S. Grimme and C. Bannwarth, J. Chem. Phys., 2016, 145, 054103.
     DOI: 10.1063/1.4959605
   
   in the mass-spec context:
   * V. Asgeirsson, C. Bauer and S. Grimme, Chem. Sci., 2017, 8, 4879.
     DOI: 10.1039/c7sc00601b
   * J. Koopman and S. Grimme, ACS Omega 2019, 4, 12, 15120-15133.
     DOI: 10.1021/acsomega.9b02011
   
   for metadynamics refer to:
   * S. Grimme, J. Chem. Theory Comput., 2019, 155, 2847-2862
     DOI: 10.1021/acs.jctc.9b00143
   
   for SPH calculations refer to:
   * S. Spicher and S. Grimme, J. Chem. Theory Comput., 2021, 17, 1701-1714
     DOI: 10.1021/acs.jctc.0c01306
   
   with help from (in alphabetical order)
   P. Atkinson, C. Bannwarth, F. Bohle, G. Brandenburg, E. Caldeweyher
   M. Checinski, S. Dohm, S. Ehlert, S. Ehrlich, I. Gerasimov, C. Hölzer
   A. Katbashev, J. Koopman, C. Lavigne, S. Lehtola, F. März, M. Müller,
   F. Musil, H. Neugebauer, J. Pisarek, C. Plett, P. Pracht, F. Pultar,
   J. Seibert, P. Shushkov, S. Spicher, M. Stahn, M. Steiner, T. Strunk,
   J. Stückrath, T. Rose, and J. Unsleber
   
 * started run on 2024/06/05 at 20:00:16.852     

           -------------------------------------------------
          |                Calculation Setup                |
           -------------------------------------------------

          program call               : xtb struc.xyz --opt loose --input .xc1 --gfn2
          hostname                   : n-62-21-68
          coordinate file            : struc.xyz
          omp threads                :                     1

   ID    Z sym.   atoms
    1    6 C      1, 3, 5-7, 10, 11, 14
    2    7 N      2, 4, 9, 13
    3    8 O      8, 12
    4    1 H      15-25
constraining bond 10 13 to    5.9200000 Å, actual value:    3.6911810 Å

           -------------------------------------------------
          |                 G F N 2 - x T B                 |
           -------------------------------------------------

        Reference                      10.1021/acs.jctc.8b01176
      * Hamiltonian:
        H0-scaling (s, p, d)           1.850000    2.230000    2.230000
        zeta-weighting                 0.500000
      * Dispersion:
        s8                             2.700000
        a1                             0.520000
        a2                             5.000000
        s9                             5.000000
      * Repulsion:
        kExp                           1.500000    1.000000
        rExp                           1.000000
      * Coulomb:
        alpha                          2.000000
        third order                    shell-resolved
        anisotropic                    true
        a3                             3.000000
        a5                             4.000000
        cn-shift                       1.200000
        cn-exp                         4.000000
        max-rad                        5.000000


          ...................................................
          :                      SETUP                      :
          :.................................................:
          :  # basis functions                  67          :
          :  # atomic orbitals                  67          :
          :  # shells                           39          :
          :  # electrons                        74          :
          :  max. iterations                   250          :
          :  Hamiltonian                  GFN2-xTB          :
          :  restarted?                      false          :
          :  GBSA solvation                  false          :
          :  PC potential                    false          :
          :  electronic temp.         5000.0000000     K    :
          :  accuracy                    1.0000000          :
          :  -> integral cutoff          0.2500000E+02      :
          :  -> integral neglect         0.1000000E-07      :
          :  -> SCF convergence          0.1000000E-05 Eh   :
          :  -> wf. convergence          0.1000000E-03 e    :
          :  Broyden damping             0.4000000          :
          ...................................................

 iter      E             dE          RMSdq      gap      omega  full diag
   1    -42.5894031 -0.425894E+02  0.445E+00    3.52       0.0  T
   2    -42.7683054 -0.178902E+00  0.251E+00    3.36       1.0  T
   3    -42.7759211 -0.761567E-02  0.147E+00    3.35       1.0  T
   4    -42.7728404  0.308066E-02  0.553E-01    3.33       1.0  T
   5    -42.7789548 -0.611444E-02  0.112E-01    3.35       1.0  T
   6    -42.7790473 -0.924914E-04  0.614E-02    3.33       1.0  T
   7    -42.7790721 -0.247928E-04  0.258E-02    3.34       1.0  T
   8    -42.7790772 -0.508996E-05  0.938E-03    3.34       2.1  T
   9    -42.7790779 -0.669422E-06  0.448E-03    3.34       4.5  T
  10    -42.7790780 -0.821511E-07  0.115E-03    3.34      17.4  T
  11    -42.7790780 -0.322662E-08  0.553E-04    3.34      36.2  T
  12    -42.7790780 -0.287052E-08  0.180E-04    3.34     111.1  T

   *** convergence criteria satisfied after 12 iterations ***

         #    Occupation            Energy/Eh            Energy/eV
      -------------------------------------------------------------
         1        2.0000           -0.9185990             -24.9964
       ...           ...                  ...                  ...
        31        1.9996           -0.6230278             -16.9534
        32        1.9995           -0.6194601             -16.8564
        33        1.9979           -0.5974976             -16.2587
        34        1.9932           -0.5789629             -15.7544
        35        1.9817           -0.5631863             -15.3251
        36        1.9779           -0.5602245             -15.2445
        37        1.9748           -0.5581234             -15.1873 (HOMO)
        38        0.0652           -0.4353579             -11.8467 (LUMO)
        39        0.0099           -0.4050467             -11.0219
        40        0.0013           -0.3732218             -10.1559
        41        0.0000           -0.2886859              -7.8555
        42                         -0.2065804              -5.6213
       ...                                ...                  ...
        67                          0.5625656              15.3082
      -------------------------------------------------------------
                  HL-Gap            0.1227656 Eh            3.3406 eV
             Fermi-level           -0.4890455 Eh          -13.3076 eV

 SCC (total)                   0 d,  0 h,  0 min,  0.063 sec
 SCC setup                      ...        0 min,  0.000 sec (  0.378%)
 Dispersion                     ...        0 min,  0.000 sec (  0.476%)
 classical contributions        ...        0 min,  0.000 sec (  0.126%)
 integral evaluation            ...        0 min,  0.005 sec (  8.418%)
 iterations                     ...        0 min,  0.031 sec ( 48.872%)
 molecular gradient             ...        0 min,  0.026 sec ( 41.456%)
 printout                       ...        0 min,  0.000 sec (  0.253%)

         :::::::::::::::::::::::::::::::::::::::::::::::::::::
         ::                     SUMMARY                     ::
         :::::::::::::::::::::::::::::::::::::::::::::::::::::
         :: total energy             -33.377988415702 Eh    ::
         :: gradient norm              5.955239929756 Eh/a0 ::
         :: HOMO-LUMO gap              3.340621582928 eV    ::
         ::.................................................::
         :: SCC energy               -42.779077977399 Eh    ::
         :: -> isotropic ES            0.141123876439 Eh    ::
         :: -> anisotropic ES         -0.005230418907 Eh    ::
         :: -> anisotropic XC          0.011966818540 Eh    ::
         :: -> dispersion             -0.022657731803 Eh    ::
         :: repulsion energy           0.531105277918 Eh    ::
         :: add. restraining           8.869870124770 Eh    ::
         :: total charge               1.000000000002 e     ::
         :::::::::::::::::::::::::::::::::::::::::::::::::::::

      ----------------------------------------------------------- 
     |                   =====================                   |
     |                        A N C O P T                        |
     |                   =====================                   |
     |               Approximate Normal Coordinate               |
     |                Rational Function Optimizer                |
      ----------------------------------------------------------- 

          ...................................................
          :                      SETUP                      :
          :.................................................:
          :   optimization level             loose          :
          :   max. optcycles                   200          :
          :   ANC micro-cycles                  20          :
          :   degrees of freedom                69          :
          :.................................................:
          :   RF solver                   davidson          :
          :   write xtbopt.log                true          :
          :   linear?                        false          :
          :   energy convergence         0.5000000E-04 Eh   :
          :   grad. convergence          0.4000000E-02 Eh/α :
          :   maxmium RF displ.          1.0000000          :
          :   Hlow (freq-cutoff)         0.1000000E-01      :
          :   Hmax (freq-cutoff)         5.0000000          :
          :   S6 in model hess.         20.0000000          :
          ...................................................

generating ANC from model Hessian ...
Using Lindh-Hessian (1995)
 Shifting diagonal of input Hessian by   0.76369146650767816     
 Lowest  eigenvalues of input Hessian
    0.010000    0.292078    0.000000    0.000000    0.000000    0.000000
    0.000000    0.000000    0.766710    0.768846    0.773442    0.774493
    0.774872    0.775917    0.779828    0.783245    0.783971    0.791964
 Highest eigenvalues
    2.906012    2.954803    3.031490    3.132489    3.274785    4.004546


........................................................................
.............................. CYCLE    1 ..............................
........................................................................

 iter      E             dE          RMSdq      gap      omega  full diag
   1    -42.7790780 -0.427791E+02  0.626E-05    3.34       0.0  T
   2    -42.7790780 -0.124203E-10  0.329E-05    3.34     607.4  T
   3    -42.7790780  0.106581E-12  0.193E-05    3.34    1034.2  T
     SCC iter.                  ...        0 min,  0.005 sec
     gradient                   ...        0 min,  0.026 sec
 * total energy  :   -33.3779884 Eh     change       -0.6650680E-10 Eh
   gradient norm :     5.9552398 Eh/α   predicted     0.0000000E+00 (-100.00%)
   displ. norm   :     0.7409586 α      lambda       -0.4388671E+01
   maximum displ.:     0.6558077 α      in ANC's #69, #60, #40, ...

........................................................................
.............................. CYCLE    2 ..............................
........................................................................

 iter      E             dE          RMSdq      gap      omega  full diag
   1    -42.7060841 -0.427061E+02  0.112E+00    2.86       0.0  T
   2    -42.7130782 -0.699405E-02  0.679E-01    2.99       1.0  T
   3    -42.7150809 -0.200273E-02  0.365E-01    2.97       1.0  T
   4    -42.7153891 -0.308215E-03  0.951E-02    2.96       1.0  T
   5    -42.7155588 -0.169667E-03  0.313E-02    2.97       1.0  T
   6    -42.7155678 -0.903481E-05  0.155E-02    2.97       1.3  T
   7    -42.7155686 -0.762536E-06  0.346E-03    2.97       5.8  T
   8    -42.7155687 -0.131562E-06  0.150E-03    2.97      13.4  T
   9    -42.7155687 -0.515622E-08  0.677E-04    2.97      29.5  T
  10    -42.7155687 -0.975760E-09  0.283E-04    2.97      70.6  T
     SCC iter.                  ...        0 min,  0.027 sec
     gradient                   ...        0 min,  0.026 sec
 * total energy  :   -37.1225519 Eh     change       -0.3744564E+01 Eh
   gradient norm :     4.2204573 Eh/α   predicted    -0.3400207E+01 (  -9.20%)
   displ. norm   :     0.7680821 α      lambda       -0.3224148E+01
   maximum displ.:     0.6805784 α      in ANC's #69, #60, #40, ...

........................................................................
.............................. CYCLE    3 ..............................
........................................................................

 iter      E             dE          RMSdq      gap      omega  full diag
   1    -42.5382724 -0.425383E+02  0.104E+00    1.97       0.0  T
   2    -42.5434424 -0.516995E-02  0.782E-01    2.11       1.0  T
   3    -42.5533611 -0.991870E-02  0.394E-01    2.10       1.0  T
   4    -42.5534892 -0.128113E-03  0.155E-01    2.02       1.0  T
   5    -42.5540114 -0.522236E-03  0.644E-02    2.12       1.0  T
   6    -42.5540787 -0.672257E-04  0.248E-02    2.08       1.0  T
   7    -42.5540823 -0.358358E-05  0.175E-02    2.09       1.1  T
   8    -42.5540888 -0.649946E-05  0.456E-03    2.08       4.4  T
   9    -42.5540890 -0.222746E-06  0.216E-03    2.08       9.3  T
  10    -42.5540890 -0.566067E-07  0.868E-04    2.08      23.1  T
  11    -42.5540890 -0.336651E-08  0.344E-04    2.08      58.2  T
     SCC iter.                  ...        0 min,  0.028 sec
     gradient                   ...        0 min,  0.026 sec
 * total energy  :   -39.7462821 Eh     change       -0.2623730E+01 Eh
   gradient norm :     2.6739041 Eh/α   predicted    -0.2563117E+01 (  -2.31%)
   displ. norm   :     0.7389071 α      lambda       -0.1931662E+01
   maximum displ.:     0.6071256 α      in ANC's #69, #2, #40, ...

........................................................................
.............................. CYCLE    4 ..............................
........................................................................

 iter      E             dE          RMSdq      gap      omega  full diag
   1    -42.4000125 -0.424000E+02  0.909E-01    0.77       0.0  T
   2    -42.3596306  0.403819E-01  0.127E+00    1.55       1.0  T
   3    -42.4082816 -0.486510E-01  0.469E-01    0.89       1.0  T
   4    -42.4036664  0.461516E-02  0.550E-01    1.23       1.0  T
   5    -42.4126356 -0.896922E-02  0.126E-01    1.04       1.0  T
   6    -42.4130247 -0.389041E-03  0.541E-02    1.05       1.0  T
   7    -42.4130672 -0.424913E-04  0.262E-02    1.05       1.0  T
   8    -42.4130850 -0.177738E-04  0.834E-03    1.04       2.4  T
   9    -42.4130862 -0.120483E-05  0.266E-03    1.04       7.5  T
  10    -42.4130862 -0.196684E-08  0.130E-03    1.04      15.4  T
  11    -42.4130862 -0.483144E-07  0.534E-04    1.04      37.4  T
  12    -42.4130862 -0.371582E-08  0.217E-04    1.04      92.2  T
     SCC iter.                  ...        0 min,  0.042 sec
     gradient                   ...        0 min,  0.026 sec
 * total energy  :   -41.2289459 Eh     change       -0.1482664E+01 Eh
   gradient norm :     1.4065075 Eh/α   predicted    -0.1493166E+01 (   0.71%)
   displ. norm   :     0.5785828 α      lambda       -0.7976161E+00
   maximum displ.:     0.4850307 α      in ANC's #69, #2, #16, ...

........................................................................
.............................. CYCLE    5 ..............................
........................................................................

 iter      E             dE          RMSdq      gap      omega  full diag
   1    -42.3230080 -0.423230E+02  0.936E-01    0.56       0.0  T
   2    -42.3206671  0.234086E-02  0.718E-01    0.56       1.0  T
   3    -42.3294221 -0.875499E-02  0.411E-01    0.60       1.0  T
   4    -42.3259020  0.352011E-02  0.350E-01    0.45       1.0  T
   5    -42.3275859 -0.168389E-02  0.292E-01    0.72       1.0  T
   6    -42.3322435 -0.465763E-02  0.325E-02    0.59       1.0  T
   7    -42.3322529 -0.934026E-05  0.205E-02    0.59       1.0  T
   8    -42.3322492  0.363889E-05  0.164E-02    0.59       1.2  T
   9    -42.3322575 -0.828269E-05  0.804E-03    0.59       2.5  T
  10    -42.3322600 -0.253500E-05  0.126E-03    0.59      15.9  T
  11    -42.3322601 -0.416073E-07  0.453E-04    0.59      44.2  T
  12    -42.3322601 -0.781043E-09  0.188E-04    0.59     106.4  T
     SCC iter.                  ...        0 min,  0.020 sec
     gradient                   ...        0 min,  0.025 sec
 * total energy  :   -41.7453085 Eh     change       -0.5163626E+00 Eh
   gradient norm :     0.4250373 Eh/α   predicted    -0.5323174E+00 (   3.09%)
   displ. norm   :     0.3170330 α      lambda       -0.1258153E+00
   maximum displ.:     0.1928120 α      in ANC's #69, #16, #19, ...

........................................................................
.............................. CYCLE    6 ..............................
........................................................................

 iter      E             dE          RMSdq      gap      omega  full diag
   1    -42.3452123 -0.423452E+02  0.423E-01    0.54       0.0  T
   2    -42.3416037  0.360855E-02  0.471E-01    0.39       1.0  T
   3    -42.3405143  0.108947E-02  0.381E-01    0.69       1.0  T
   4    -42.3406793 -0.165075E-03  0.417E-01    0.33       1.0  T
   5    -42.3486124 -0.793309E-02  0.723E-02    0.52       1.0  T
   6    -42.3487607 -0.148323E-03  0.215E-02    0.52       1.0  T
   7    -42.3487739 -0.131654E-04  0.104E-02    0.52       1.9  T
   8    -42.3487737  0.178947E-06  0.578E-03    0.52       3.5  T
   9    -42.3487747 -0.968287E-06  0.226E-03    0.52       8.9  T
  10    -42.3487749 -0.174594E-06  0.523E-04    0.52      38.3  T
  11    -42.3487749 -0.578645E-08  0.232E-04    0.52      86.3  T
     SCC iter.                  ...        0 min,  0.021 sec
     gradient                   ...        0 min,  0.014 sec
 * total energy  :   -41.8281556 Eh     change       -0.8284711E-01 Eh
   gradient norm :     0.2231286 Eh/α   predicted    -0.6923126E-01 ( -16.43%)
   displ. norm   :     0.3231944 α      lambda       -0.5973992E-01
   maximum displ.:     0.1723180 α      in ANC's #16, #19, #6, ...

........................................................................
.............................. CYCLE    7 ..............................
........................................................................

 iter      E             dE          RMSdq      gap      omega  full diag
   1    -42.4107284 -0.424107E+02  0.363E-01    0.56       0.0  T
   2    -42.4113177 -0.589389E-03  0.258E-01    0.57       1.0  T
   3    -42.4118406 -0.522905E-03  0.155E-01    0.57       1.0  T
   4    -42.4098312  0.200946E-02  0.212E-01    0.47       1.0  T
   5    -42.4110508 -0.121964E-02  0.149E-01    0.64       1.0  T
   6    -42.4121591 -0.110824E-02  0.188E-02    0.57       1.1  T
   7    -42.4121646 -0.553947E-05  0.944E-03    0.56       2.1  T
   8    -42.4121663 -0.167973E-05  0.314E-03    0.56       6.4  T
   9    -42.4121664 -0.953388E-07  0.151E-03    0.56      13.2  T
  10    -42.4121664 -0.529270E-07  0.370E-04    0.56      54.1  T
  11    -42.4121664 -0.190773E-08  0.140E-04    0.56     143.3  T
     SCC iter.                  ...        0 min,  0.041 sec
     gradient                   ...        0 min,  0.024 sec
 * total energy  :   -41.8778580 Eh     change       -0.4970240E-01 Eh
   gradient norm :     0.2470333 Eh/α   predicted    -0.3299003E-01 ( -33.62%)
   displ. norm   :     0.5927407 α      lambda       -0.9371062E-01
   maximum displ.:     0.3282482 α      in ANC's #16, #19, #60, ...

........................................................................
.............................. CYCLE    8 ..............................
........................................................................

 iter      E             dE          RMSdq      gap      omega  full diag
   1    -42.5331443 -0.425331E+02  0.653E-01    0.68       0.0  T
   2    -42.5330335  0.110786E-03  0.418E-01    0.59       1.0  T
   3    -42.5135013  0.195322E-01  0.703E-01    1.01       1.0  T
   4    -42.5290684 -0.155671E-01  0.376E-01    0.47       1.0  T
   5    -42.5346365 -0.556814E-02  0.684E-02    0.67       1.0  T
   6    -42.5347893 -0.152828E-03  0.218E-02    0.65       1.0  T
   7    -42.5347916 -0.223940E-05  0.131E-02    0.65       1.5  T
   8    -42.5347965 -0.491367E-05  0.363E-03    0.65       5.5  T
   9    -42.5347967 -0.247681E-06  0.104E-03    0.65      19.2  T
  10    -42.5347967 -0.474041E-08  0.310E-04    0.65      64.6  T
  11    -42.5347967 -0.204213E-08  0.169E-04    0.65     118.4  T
     SCC iter.                  ...        0 min,  0.028 sec
     gradient                   ...        0 min,  0.026 sec
 * total energy  :   -41.9485519 Eh     change       -0.7069391E-01 Eh
   gradient norm :     0.2278232 Eh/α   predicted    -0.6331755E-01 ( -10.43%)
   displ. norm   :     0.4887239 α      lambda       -0.5572867E-01
   maximum displ.:     0.2774375 α      in ANC's #16, #19, #6, ...

........................................................................
.............................. CYCLE    9 ..............................
........................................................................

 iter      E             dE          RMSdq      gap      omega  full diag
   1    -42.6034696 -0.426035E+02  0.542E-01    0.77       0.0  T
   2    -42.6017227  0.174681E-02  0.390E-01    0.59       1.0  T
   3    -42.5812855  0.204373E-01  0.756E-01    1.12       1.0  T
   4    -42.6023689 -0.210834E-01  0.209E-01    0.65       1.0  T
   5    -42.6040361 -0.166723E-02  0.544E-02    0.71       1.0  T
   6    -42.6041358 -0.997024E-04  0.122E-02    0.71       1.6  T
   7    -42.6041337  0.212061E-05  0.100E-02    0.71       2.0  T
   8    -42.6041361 -0.239589E-05  0.310E-03    0.71       6.5  T
   9    -42.6041364 -0.289325E-06  0.580E-04    0.71      34.5  T
  10    -42.6041364 -0.100361E-08  0.243E-04    0.71      82.4  T
     SCC iter.                  ...        0 min,  0.017 sec
     gradient                   ...        0 min,  0.013 sec
 * total energy  :   -41.9868397 Eh     change       -0.3828783E-01 Eh
   gradient norm :     0.1442871 Eh/α   predicted    -0.3451980E-01 (  -9.84%)
   displ. norm   :     0.3340172 α      lambda       -0.2751971E-01
   maximum displ.:     0.1819319 α      in ANC's #16, #19, #6, ...

........................................................................
.............................. CYCLE   10 ..............................
........................................................................

 iter      E             dE          RMSdq      gap      omega  full diag
   1    -42.6209366 -0.426209E+02  0.382E-01    0.82       0.0  T
   2    -42.6191744  0.176216E-02  0.313E-01    0.64       1.0  T
   3    -42.6113632  0.781117E-02  0.531E-01    1.03       1.0  T
   4    -42.6208343 -0.947106E-02  0.145E-01    0.74       1.0  T
   5    -42.6214912 -0.656868E-03  0.541E-02    0.77       1.0  T
   6    -42.6215924 -0.101248E-03  0.118E-02    0.77       1.7  T
   7    -42.6215944 -0.194882E-05  0.568E-03    0.76       3.5  T
   8    -42.6215946 -0.191620E-06  0.177E-03    0.76      11.3  T
   9    -42.6215947 -0.990978E-07  0.470E-04    0.76      42.5  T
  10    -42.6215946  0.187076E-08  0.325E-04    0.76      61.6  T
     SCC iter.                  ...        0 min,  0.014 sec
     gradient                   ...        0 min,  0.012 sec
 * total energy  :   -42.0087892 Eh     change       -0.2194946E-01 Eh
   gradient norm :     0.1189519 Eh/α   predicted    -0.1529515E-01 ( -30.32%)
   displ. norm   :     0.4901462 α      lambda       -0.3437526E-01
   maximum displ.:     0.2526204 α      in ANC's #16, #19, #44, ...

........................................................................
.............................. CYCLE   11 ..............................
........................................................................

 iter      E             dE          RMSdq      gap      omega  full diag
   1    -42.6202623 -0.426203E+02  0.526E-01    0.93       0.0  T
   2    -42.6085093  0.117529E-01  0.593E-01    0.58       1.0  T
   3    -42.6020204  0.648893E-02  0.754E-01    1.20       1.0  T
   4    -42.6209952 -0.189748E-01  0.130E-01    0.88       1.0  T
   5    -42.6212822 -0.286980E-03  0.545E-02    0.86       1.0  T
   6    -42.6213749 -0.926739E-04  0.227E-02    0.85       1.0  T
   7    -42.6213842 -0.925535E-05  0.896E-03    0.85       2.2  T
   8    -42.6213854 -0.120710E-05  0.194E-03    0.85      10.3  T
   9    -42.6213854 -0.315390E-08  0.152E-03    0.85      13.2  T
  10    -42.6213854 -0.679670E-07  0.327E-04    0.85      61.1  T
  11    -42.6213854 -0.214960E-09  0.183E-04    0.85     109.6  T
     SCC iter.                  ...        0 min,  0.015 sec
     gradient                   ...        0 min,  0.012 sec
 * total energy  :   -42.0332388 Eh     change       -0.2444965E-01 Eh
   gradient norm :     0.1177528 Eh/α   predicted    -0.2131686E-01 ( -12.81%)
   displ. norm   :     0.6861751 α      lambda       -0.2918446E-01
   maximum displ.:     0.4699384 α      in ANC's #1, #16, #19, ...

........................................................................
.............................. CYCLE   12 ..............................
........................................................................

 iter      E             dE          RMSdq      gap      omega  full diag
   1    -42.5975666 -0.425976E+02  0.643E-01    0.96       0.0  T
   2    -42.5588149  0.387518E-01  0.102E+00    0.41       1.0  T
   3    -42.5808369 -0.220221E-01  0.767E-01    1.23       1.0  T
   4    -42.5990985 -0.182616E-01  0.146E-01    0.93       1.0  T
   5    -42.5996362 -0.537726E-03  0.585E-02    0.90       1.0  T
   6    -42.5997091 -0.728271E-04  0.271E-02    0.89       1.0  T
   7    -42.5997250 -0.159443E-04  0.115E-02    0.87       1.7  T
   8    -42.5997304 -0.544653E-05  0.262E-03    0.88       7.6  T
   9    -42.5997303  0.127438E-06  0.251E-03    0.88       8.0  T
  10    -42.5997305 -0.188725E-06  0.444E-04    0.88      45.1  T
  11    -42.5997305  0.104099E-08  0.280E-04    0.88      71.4  T
     SCC iter.                  ...        0 min,  0.015 sec
     gradient                   ...        0 min,  0.013 sec
 * total energy  :   -42.0369130 Eh     change       -0.3674178E-02 Eh
   gradient norm :     0.1602892 Eh/α   predicted    -0.2146282E-01 ( 484.15%)
   displ. norm   :     0.5176975 α      lambda       -0.3205965E-01
   maximum displ.:     0.4206060 α      in ANC's #1, #16, #44, ...

........................................................................
.............................. CYCLE   13 ..............................
........................................................................

 iter      E             dE          RMSdq      gap      omega  full diag
   1    -42.6079209 -0.426079E+02  0.412E-01    0.88       0.0  T
   2    -42.6079962 -0.752250E-04  0.244E-01    0.88       1.0  T
   3    -42.6066249  0.137128E-02  0.220E-01    0.95       1.0  T
   4    -42.6053924  0.123254E-02  0.251E-01    0.76       1.0  T
   5    -42.6080738 -0.268142E-02  0.359E-02    0.90       1.0  T
   6    -42.6081124 -0.386670E-04  0.135E-02    0.89       1.5  T
   7    -42.6081150 -0.253233E-05  0.687E-03    0.89       2.9  T
   8    -42.6081162 -0.119284E-05  0.215E-03    0.88       9.3  T
   9    -42.6081162 -0.749911E-07  0.832E-04    0.88      24.0  T
  10    -42.6081163 -0.139689E-07  0.233E-04    0.88      85.9  T
     SCC iter.                  ...        0 min,  0.014 sec
     gradient                   ...        0 min,  0.013 sec
 * total energy  :   -42.0523570 Eh     change       -0.1544406E-01 Eh
   gradient norm :     0.0830675 Eh/α   predicted    -0.2032600E-01 (  31.61%)
   displ. norm   :     0.1329034 α      lambda       -0.7135472E-02
   maximum displ.:     0.0629598 α      in ANC's #1, #44, #48, ...

........................................................................
.............................. CYCLE   14 ..............................
........................................................................

 iter      E             dE          RMSdq      gap      omega  full diag
   1    -42.6320964 -0.426321E+02  0.154E-01    0.90       0.0  T
   2    -42.6321632 -0.667409E-04  0.944E-02    0.90       1.0  T
   3    -42.6321244  0.387283E-04  0.678E-02    0.88       1.0  T
   4    -42.6315453  0.579179E-03  0.125E-01    0.96       1.0  T
   5    -42.6321745 -0.629239E-03  0.253E-02    0.89       1.0  T
   6    -42.6321954 -0.208773E-04  0.711E-03    0.90       2.8  T
   7    -42.6321951  0.243788E-06  0.612E-03    0.89       3.3  T
   8    -42.6321962 -0.105923E-05  0.194E-03    0.90      10.3  T
   9    -42.6321963 -0.103599E-06  0.479E-04    0.90      41.7  T
  10    -42.6321963 -0.318208E-08  0.120E-04    0.90     166.8  T
     SCC iter.                  ...        0 min,  0.014 sec
     gradient                   ...        0 min,  0.012 sec
 * total energy  :   -42.0568633 Eh     change       -0.4506240E-02 Eh
   gradient norm :     0.0536550 Eh/α   predicted    -0.3630778E-02 ( -19.43%)
   displ. norm   :     0.1449108 α      lambda       -0.5060435E-02
   maximum displ.:     0.0845637 α      in ANC's #16, #17, #19, ...

........................................................................
.............................. CYCLE   15 ..............................
........................................................................

 iter      E             dE          RMSdq      gap      omega  full diag
   1    -42.6471107 -0.426471E+02  0.109E-01    0.90       0.0  T
   2    -42.6470214  0.893787E-04  0.781E-02    0.93       1.0  T
   3    -42.6458454  0.117596E-02  0.189E-01    0.82       1.0  T
   4    -42.6471420 -0.129655E-02  0.310E-02    0.90       1.0  T
   5    -42.6471524 -0.104807E-04  0.128E-02    0.90       1.6  T
   6    -42.6471559 -0.345395E-05  0.570E-03    0.90       3.5  T
   7    -42.6471564 -0.470033E-06  0.373E-03    0.90       5.4  T
   8    -42.6471567 -0.339440E-06  0.117E-03    0.90      17.0  T
   9    -42.6471567 -0.417534E-07  0.198E-04    0.90     100.8  T
  10    -42.6471567 -0.242316E-09  0.792E-05    0.90     252.5  T
     SCC iter.                  ...        0 min,  0.014 sec
     gradient                   ...        0 min,  0.013 sec
 * total energy  :   -42.0609733 Eh     change       -0.4110044E-02 Eh
   gradient norm :     0.0496257 Eh/α   predicted    -0.2583372E-02 ( -37.14%)
   displ. norm   :     0.3321799 α      lambda       -0.8055141E-02
   maximum displ.:     0.1972636 α      in ANC's #16, #17, #19, ...

........................................................................
.............................. CYCLE   16 ..............................
........................................................................

 iter      E             dE          RMSdq      gap      omega  full diag
   1    -42.6626887 -0.426627E+02  0.225E-01    0.90       0.0  T
   2    -42.6621842  0.504441E-03  0.172E-01    0.97       1.0  T
   3    -42.6565484  0.563583E-02  0.409E-01    0.72       1.0  T
   4    -42.6626784 -0.613001E-02  0.744E-02    0.91       1.0  T
   5    -42.6628134 -0.135009E-03  0.199E-02    0.91       1.0  T
   6    -42.6628241 -0.106720E-04  0.520E-03    0.91       3.8  T
   7    -42.6628236  0.436679E-06  0.474E-03    0.91       4.2  T
   8    -42.6628242 -0.565904E-06  0.147E-03    0.91      13.6  T
   9    -42.6628243 -0.571032E-07  0.406E-04    0.91      49.2  T
  10    -42.6628243 -0.279362E-08  0.232E-04    0.91      86.1  T
     SCC iter.                  ...        0 min,  0.014 sec
     gradient                   ...        0 min,  0.012 sec
 * total energy  :   -42.0665067 Eh     change       -0.5533360E-02 Eh
   gradient norm :     0.0540893 Eh/α   predicted    -0.4472044E-02 ( -19.18%)
   displ. norm   :     0.2673157 α      lambda       -0.4071121E-02
   maximum displ.:     0.1593742 α      in ANC's #16, #17, #19, ...

........................................................................
.............................. CYCLE   17 ..............................
........................................................................

 iter      E             dE          RMSdq      gap      omega  full diag
   1    -42.6640834 -0.426641E+02  0.167E-01    0.89       0.0  T
   2    -42.6633316  0.751763E-03  0.170E-01    0.99       1.0  T
   3    -42.6620901  0.124153E-02  0.242E-01    0.80       1.0  T
   4    -42.6640736 -0.198352E-02  0.569E-02    0.90       1.0  T
   5    -42.6641739 -0.100357E-03  0.109E-02    0.91       1.8  T
   6    -42.6641762 -0.222349E-05  0.486E-03    0.91       4.1  T
   7    -42.6641765 -0.330045E-06  0.214E-03    0.91       9.4  T
   8    -42.6641765 -0.537923E-07  0.873E-04    0.91      22.9  T
   9    -42.6641766 -0.175883E-07  0.309E-04    0.91      64.7  T
     SCC iter.                  ...        0 min,  0.012 sec
     gradient                   ...        0 min,  0.012 sec
 * total energy  :   -42.0695645 Eh     change       -0.3057849E-02 Eh
   gradient norm :     0.0497813 Eh/α   predicted    -0.2181095E-02 ( -28.67%)
   displ. norm   :     0.2519324 α      lambda       -0.3783448E-02
   maximum displ.:     0.1387651 α      in ANC's #17, #16, #19, ...

........................................................................
.............................. CYCLE   18 ..............................
........................................................................

 iter      E             dE          RMSdq      gap      omega  full diag
   1    -42.6625135 -0.426625E+02  0.161E-01    0.88       0.0  T
   2    -42.6605051  0.200840E-02  0.249E-01    1.03       1.0  T
   3    -42.6619788 -0.147369E-02  0.159E-01    0.84       1.0  T
   4    -42.6626457 -0.666914E-03  0.573E-02    0.90       1.0  T
   5    -42.6627237 -0.780275E-04  0.171E-02    0.91       1.2  T
   6    -42.6627315 -0.773978E-05  0.625E-03    0.91       3.2  T
   7    -42.6627321 -0.661498E-06  0.244E-03    0.91       8.2  T
   8    -42.6627322 -0.121877E-07  0.106E-03    0.91      18.9  T
   9    -42.6627322 -0.279477E-07  0.268E-04    0.91      74.5  T
  10    -42.6627322 -0.924508E-09  0.129E-04    0.91     155.0  T
     SCC iter.                  ...        0 min,  0.014 sec
     gradient                   ...        0 min,  0.013 sec
 * total energy  :   -42.0722962 Eh     change       -0.2731648E-02 Eh
   gradient norm :     0.0398719 Eh/α   predicted    -0.2011823E-02 ( -26.35%)
   displ. norm   :     0.1874483 α      lambda       -0.2772169E-02
   maximum displ.:     0.1141131 α      in ANC's #17, #16, #11, ...

........................................................................
.............................. CYCLE   19 ..............................
........................................................................

 iter      E             dE          RMSdq      gap      omega  full diag
   1    -42.6609424 -0.426609E+02  0.128E-01    0.88       0.0  T
   2    -42.6599700  0.972416E-03  0.183E-01    1.00       1.0  T
   3    -42.6605046 -0.534665E-03  0.136E-01    0.85       1.0  T
   4    -42.6610583 -0.553702E-03  0.461E-02    0.91       1.0  T
   5    -42.6610884 -0.300456E-04  0.191E-02    0.91       1.0  T
   6    -42.6611000 -0.116241E-04  0.538E-03    0.91       3.7  T
   7    -42.6611004 -0.438476E-06  0.232E-03    0.91       8.6  T
   8    -42.6611005 -0.537661E-07  0.562E-04    0.91      35.6  T
   9    -42.6611005 -0.350973E-08  0.215E-04    0.91      93.1  T
     SCC iter.                  ...        0 min,  0.025 sec
     gradient                   ...        0 min,  0.025 sec
 * total energy  :   -42.0742848 Eh     change       -0.1988573E-02 Eh
   gradient norm :     0.0356422 Eh/α   predicted    -0.1434867E-02 ( -27.84%)
   displ. norm   :     0.1396834 α      lambda       -0.2089262E-02
   maximum displ.:     0.0830865 α      in ANC's #17, #11, #25, ...

........................................................................
.............................. CYCLE   20 ..............................
........................................................................

 iter      E             dE          RMSdq      gap      omega  full diag
   1    -42.6609025 -0.426609E+02  0.115E-01    0.90       0.0  T
   2    -42.6609049 -0.243499E-05  0.791E-02    0.93       1.0  T
   3    -42.6603488  0.556118E-03  0.127E-01    0.85       1.0  T
   4    -42.6607320 -0.383179E-03  0.836E-02    0.95       1.0  T
   5    -42.6609617 -0.229687E-03  0.147E-02    0.92       1.4  T
   6    -42.6609686 -0.693838E-05  0.467E-03    0.91       4.3  T
   7    -42.6609689 -0.296671E-06  0.239E-03    0.91       8.4  T
   8    -42.6609690 -0.110230E-06  0.385E-04    0.91      51.9  T
   9    -42.6609690 -0.821636E-09  0.214E-04    0.91      93.7  T
     SCC iter.                  ...        0 min,  0.024 sec
     gradient                   ...        0 min,  0.025 sec
 * total energy  :   -42.0757743 Eh     change       -0.1489554E-02 Eh
   gradient norm :     0.0341452 Eh/α   predicted    -0.1065056E-02 ( -28.50%)
   displ. norm   :     0.1070966 α      lambda       -0.1559819E-02
   maximum displ.:     0.0530293 α      in ANC's #17, #11, #15, ...
 * RMSD in coord.:     1.0175054 α      energy gain  -0.8697786E+01 Eh

generating ANC from model Hessian ...
Using Lindh-Hessian (1995)
 Shifting diagonal of input Hessian by    1.0223091539784864E-002
 Lowest  eigenvalues of input Hessian
    0.010000    0.000000    0.000000    0.000000    0.000000    0.000000
    0.000000    0.010366    0.010738    0.010849    0.011376    0.011983
    0.012018    0.012541    0.012661    0.014138    0.015747    0.020530
 Highest eigenvalues
    2.105102    2.189479    2.213023    2.311908    2.697815    3.135697


........................................................................
.............................. CYCLE   21 ..............................
........................................................................

 iter      E             dE          RMSdq      gap      omega  full diag
   1    -42.6617250 -0.426617E+02  0.112E-01    0.93       0.0  T
   2    -42.6612631  0.461858E-03  0.123E-01    0.86       1.0  T
   3    -42.6608290  0.434120E-03  0.167E-01    1.00       1.0  T
   4    -42.6617655 -0.936436E-03  0.217E-02    0.92       1.0  T
   5    -42.6617717 -0.627510E-05  0.615E-03    0.92       3.3  T
   6    -42.6617724 -0.693732E-06  0.286E-03    0.92       7.0  T
   7    -42.6617724 -0.918490E-09  0.201E-03    0.92      10.0  T
   8    -42.6617725 -0.121271E-06  0.642E-04    0.92      31.1  T
   9    -42.6617726 -0.925382E-08  0.137E-04    0.92     145.9  T
     SCC iter.                  ...        0 min,  0.026 sec
     gradient                   ...        0 min,  0.025 sec
 * total energy  :   -42.0768758 Eh     change       -0.1101466E-02 Eh
   gradient norm :     0.0293815 Eh/α   predicted     0.0000000E+00 (-100.00%)
   displ. norm   :     0.2080737 α      lambda       -0.2773285E-02
   maximum displ.:     0.1005884 α      in ANC's #2, #21, #18, ...

........................................................................
.............................. CYCLE   22 ..............................
........................................................................

 iter      E             dE          RMSdq      gap      omega  full diag
   1    -42.6676923 -0.426677E+02  0.180E-01    0.94       0.0  T
   2    -42.6658287  0.186360E-02  0.235E-01    0.80       1.0  T
   3    -42.6659667 -0.137975E-03  0.241E-01    1.02       1.0  T
   4    -42.6677556 -0.178891E-02  0.451E-02    0.92       1.0  T
   5    -42.6678252 -0.695916E-04  0.882E-03    0.91       2.3  T
   6    -42.6678261 -0.886743E-06  0.545E-03    0.92       3.7  T
   7    -42.6678267 -0.641484E-06  0.221E-03    0.91       9.1  T
   8    -42.6678268 -0.621325E-07  0.632E-04    0.91      31.6  T
   9    -42.6678268 -0.452062E-08  0.277E-04    0.91      72.3  T
     SCC iter.                  ...        0 min,  0.025 sec
     gradient                   ...        0 min,  0.026 sec
 * total energy  :   -42.0789166 Eh     change       -0.2040836E-02 Eh
   gradient norm :     0.0183680 Eh/α   predicted    -0.1446823E-02 ( -29.11%)
   displ. norm   :     0.3733473 α      lambda       -0.2560101E-02
   maximum displ.:     0.2044856 α      in ANC's #2, #17, #18, ...

........................................................................
.............................. CYCLE   23 ..............................
........................................................................

 iter      E             dE          RMSdq      gap      omega  full diag
   1    -42.6726161 -0.426726E+02  0.265E-01    0.93       0.0  T
   2    -42.6706161  0.200006E-02  0.268E-01    0.78       1.0  T
   3    -42.6672734  0.334263E-02  0.404E-01    1.10       1.0  T
   4    -42.6726133 -0.533982E-02  0.726E-02    0.91       1.0  T
   5    -42.6727956 -0.182373E-03  0.118E-02    0.90       1.7  T
   6    -42.6727981 -0.247452E-05  0.570E-03    0.90       3.5  T
   7    -42.6727986 -0.477006E-06  0.226E-03    0.90       8.9  T
   8    -42.6727986 -0.224655E-07  0.844E-04    0.90      23.7  T
   9    -42.6727986 -0.660877E-08  0.504E-04    0.90      39.7  T
     SCC iter.                  ...        0 min,  0.025 sec
     gradient                   ...        0 min,  0.025 sec
 * total energy  :   -42.0807228 Eh     change       -0.1806216E-02 Eh
   gradient norm :     0.0224181 Eh/α   predicted    -0.1458475E-02 ( -19.25%)
   displ. norm   :     0.4548351 α      lambda       -0.2431769E-02
   maximum displ.:     0.2501336 α      in ANC's #2, #17, #18, ...

........................................................................
.............................. CYCLE   24 ..............................
........................................................................

 iter      E             dE          RMSdq      gap      omega  full diag
   1    -42.6703152 -0.426703E+02  0.386E-01    0.95       0.0  T
   2    -42.6516091  0.187061E-01  0.721E-01    0.54       1.0  T
   3    -42.6655630 -0.139539E-01  0.448E-01    1.07       1.0  T
   4    -42.6707830 -0.521996E-02  0.126E-01    0.92       1.0  T
   5    -42.6713567 -0.573755E-03  0.223E-02    0.89       1.0  T
   6    -42.6713649 -0.812744E-05  0.100E-02    0.88       2.0  T
   7    -42.6713665 -0.163388E-05  0.347E-03    0.88       5.8  T
   8    -42.6713668 -0.242511E-06  0.100E-03    0.88      19.9  T
   9    -42.6713668 -0.105878E-07  0.606E-04    0.88      33.0  T
  10    -42.6713668 -0.740029E-08  0.168E-04    0.88     119.1  T
     SCC iter.                  ...        0 min,  0.027 sec
     gradient                   ...        0 min,  0.025 sec
 * total energy  :   -42.0824838 Eh     change       -0.1760940E-02 Eh
   gradient norm :     0.0367014 Eh/α   predicted    -0.1467421E-02 ( -16.67%)
   displ. norm   :     0.6500753 α      lambda       -0.4093184E-02
   maximum displ.:     0.3140870 α      in ANC's #2, #5, #17, ...

........................................................................
.............................. CYCLE   25 ..............................
........................................................................

 iter      E             dE          RMSdq      gap      omega  full diag
   1    -42.6558720 -0.426559E+02  0.599E-01    0.97       0.0  T
   2    -42.5598105  0.960616E-01  0.165E+00    0.12       1.0  T
   3    -42.6550634 -0.952529E-01  0.485E-01    1.01       1.0  T
   4    -42.6590823 -0.401898E-02  0.214E-01    0.88       1.0  T
   5    -42.6606619 -0.157956E-02  0.351E-02    0.84       1.0  T
   6    -42.6606830 -0.211209E-04  0.137E-02    0.83       1.5  T
   7    -42.6606845 -0.146009E-05  0.572E-03    0.83       3.5  T
   8    -42.6606850 -0.525727E-06  0.181E-03    0.83      11.1  T
   9    -42.6606851 -0.716395E-07  0.701E-04    0.83      28.5  T
  10    -42.6606851 -0.268471E-08  0.211E-04    0.83      95.0  T
     SCC iter.                  ...        0 min,  0.027 sec
     gradient                   ...        0 min,  0.025 sec
 * total energy  :   -42.0840325 Eh     change       -0.1548716E-02 Eh
   gradient norm :     0.0576158 Eh/α   predicted    -0.2911479E-02 (  87.99%)
   displ. norm   :     0.3288270 α      lambda       -0.5810362E-02
   maximum displ.:     0.2363229 α      in ANC's #9, #2, #4, ...

........................................................................
.............................. CYCLE   26 ..............................
........................................................................

 iter      E             dE          RMSdq      gap      omega  full diag
   1    -42.6774161 -0.426774E+02  0.203E-01    0.83       0.0  T
   2    -42.6760822  0.133397E-02  0.236E-01    0.72       1.0  T
   3    -42.6755256  0.556612E-03  0.245E-01    0.92       1.0  T
   4    -42.6775324 -0.200683E-02  0.529E-02    0.80       1.0  T
   5    -42.6775725 -0.401215E-04  0.151E-02    0.81       1.3  T
   6    -42.6775771 -0.461595E-05  0.605E-03    0.81       3.3  T
   7    -42.6775770  0.101083E-06  0.411E-03    0.81       4.9  T
   8    -42.6775775 -0.512796E-06  0.797E-04    0.81      25.1  T
   9    -42.6775775 -0.873348E-08  0.381E-04    0.81      52.5  T
     SCC iter.                  ...        0 min,  0.032 sec
     gradient                   ...        0 min,  0.025 sec
 * total energy  :   -42.0879518 Eh     change       -0.3919319E-02 Eh
   gradient norm :     0.0328646 Eh/α   predicted    -0.3219312E-02 ( -17.86%)
   displ. norm   :     0.3621445 α      lambda       -0.4483926E-02
   maximum displ.:     0.1480078 α      in ANC's #9, #18, #6, ...

........................................................................
.............................. CYCLE   27 ..............................
........................................................................

 iter      E             dE          RMSdq      gap      omega  full diag
   1    -42.6905331 -0.426905E+02  0.226E-01    0.82       0.0  T
   2    -42.6898388  0.694282E-03  0.177E-01    0.73       1.0  T
   3    -42.6847909  0.504791E-02  0.420E-01    1.00       1.0  T
   4    -42.6905985 -0.580756E-02  0.562E-02    0.82       1.0  T
   5    -42.6906604 -0.619288E-04  0.170E-02    0.81       1.2  T
   6    -42.6906670 -0.657869E-05  0.452E-03    0.81       4.4  T
   7    -42.6906669  0.630701E-07  0.241E-03    0.81       8.3  T
   8    -42.6906671 -0.161203E-06  0.626E-04    0.81      31.9  T
   9    -42.6906671 -0.687227E-08  0.289E-04    0.81      69.2  T
     SCC iter.                  ...        0 min,  0.025 sec
     gradient                   ...        0 min,  0.025 sec
 * total energy  :   -42.0912259 Eh     change       -0.3274051E-02 Eh
   gradient norm :     0.0310638 Eh/α   predicted    -0.2535994E-02 ( -22.54%)
   displ. norm   :     0.6509681 α      lambda       -0.4741754E-02
   maximum displ.:     0.3343562 α      in ANC's #9, #18, #12, ...

........................................................................
.............................. CYCLE   28 ..............................
........................................................................

 iter      E             dE          RMSdq      gap      omega  full diag
   1    -42.6825425 -0.426825E+02  0.387E-01    0.87       0.0  T
   2    -42.6344426  0.480999E-01  0.119E+00    0.27       1.0  T
   3    -42.6845818 -0.501392E-01  0.221E-01    0.84       1.0  T
   4    -42.6848853 -0.303502E-03  0.122E-01    0.77       1.0  T
   5    -42.6853383 -0.452966E-03  0.179E-02    0.77       1.1  T
   6    -42.6853405 -0.215887E-05  0.946E-03    0.77       2.1  T
   7    -42.6853418 -0.135599E-05  0.314E-03    0.77       6.4  T
   8    -42.6853420 -0.149380E-06  0.880E-04    0.77      22.7  T
   9    -42.6853420 -0.962819E-08  0.428E-04    0.77      46.7  T
     SCC iter.                  ...        0 min,  0.025 sec
     gradient                   ...        0 min,  0.025 sec
 * total energy  :   -42.0942391 Eh     change       -0.3013268E-02 Eh
   gradient norm :     0.0395403 Eh/α   predicted    -0.3375568E-02 (  12.02%)
   displ. norm   :     0.5307614 α      lambda       -0.5743649E-02
   maximum displ.:     0.2164694 α      in ANC's #12, #17, #14, ...

........................................................................
.............................. CYCLE   29 ..............................
........................................................................

 iter      E             dE          RMSdq      gap      omega  full diag
   1    -42.6899318 -0.426899E+02  0.332E-01    0.73       0.0  T
   2    -42.6798472  0.100846E-01  0.581E-01    1.03       1.0  T
   3    -42.6893932 -0.954602E-02  0.259E-01    0.68       1.0  T
   4    -42.6905355 -0.114224E-02  0.112E-01    0.81       1.0  T
   5    -42.6908957 -0.360175E-03  0.240E-02    0.78       1.0  T
   6    -42.6909085 -0.128615E-04  0.957E-03    0.77       2.1  T
   7    -42.6909095 -0.102369E-05  0.372E-03    0.77       5.4  T
   8    -42.6909097 -0.124140E-06  0.789E-04    0.78      25.4  T
   9    -42.6909097 -0.761313E-08  0.359E-04    0.78      55.7  T
     SCC iter.                  ...        0 min,  0.025 sec
     gradient                   ...        0 min,  0.025 sec
 * total energy  :   -42.0972410 Eh     change       -0.3001878E-02 Eh
   gradient norm :     0.0462681 Eh/α   predicted    -0.3680847E-02 (  22.62%)
   displ. norm   :     0.3646837 α      lambda       -0.3271237E-02
   maximum displ.:     0.1606914 α      in ANC's #12, #18, #14, ...

........................................................................
.............................. CYCLE   30 ..............................
........................................................................

 iter      E             dE          RMSdq      gap      omega  full diag
   1    -42.6852388 -0.426852E+02  0.304E-01    0.83       0.0  T
   2    -42.6692801  0.159587E-01  0.684E-01    0.48       1.0  T
   3    -42.6838774 -0.145973E-01  0.304E-01    0.90       1.0  T
   4    -42.6858711 -0.199365E-02  0.111E-01    0.79       1.0  T
   5    -42.6862259 -0.354833E-03  0.217E-02    0.78       1.0  T
   6    -42.6862369 -0.110281E-04  0.818E-03    0.77       2.4  T
   7    -42.6862385 -0.160160E-05  0.283E-03    0.77       7.1  T
   8    -42.6862386 -0.856405E-07  0.983E-04    0.77      20.4  T
   9    -42.6862386 -0.222893E-07  0.311E-04    0.77      64.3  T
     SCC iter.                  ...        0 min,  0.026 sec
     gradient                   ...        0 min,  0.025 sec
 * total energy  :   -42.0996391 Eh     change       -0.2398080E-02 Eh
   gradient norm :     0.0324022 Eh/α   predicted    -0.1853147E-02 ( -22.72%)
   displ. norm   :     0.3652241 α      lambda       -0.3633869E-02
   maximum displ.:     0.1736168 α      in ANC's #12, #14, #9, ...

........................................................................
.............................. CYCLE   31 ..............................
........................................................................

 iter      E             dE          RMSdq      gap      omega  full diag
   1    -42.6849375 -0.426849E+02  0.268E-01    0.79       0.0  T
   2    -42.6834938  0.144376E-02  0.261E-01    0.69       1.0  T
   3    -42.6803287  0.316509E-02  0.386E-01    0.96       1.0  T
   4    -42.6850364 -0.470773E-02  0.715E-02    0.76       1.0  T
   5    -42.6851510 -0.114577E-03  0.150E-02    0.78       1.3  T
   6    -42.6851572 -0.623451E-05  0.607E-03    0.78       3.3  T
   7    -42.6851578 -0.633519E-06  0.273E-03    0.78       7.3  T
   8    -42.6851579 -0.518197E-07  0.968E-04    0.78      20.7  T
   9    -42.6851579 -0.193196E-07  0.298E-04    0.78      67.2  T
     SCC iter.                  ...        0 min,  0.025 sec
     gradient                   ...        0 min,  0.025 sec
 * total energy  :   -42.1016455 Eh     change       -0.2006380E-02 Eh
   gradient norm :     0.0279390 Eh/α   predicted    -0.2059296E-02 (   2.64%)
   displ. norm   :     0.3682595 α      lambda       -0.1581238E-02
   maximum displ.:     0.2146339 α      in ANC's #12, #14, #9, ...

........................................................................
.............................. CYCLE   32 ..............................
........................................................................

 iter      E             dE          RMSdq      gap      omega  full diag
   1    -42.6806749 -0.426807E+02  0.243E-01    0.82       0.0  T
   2    -42.6707304  0.994448E-02  0.553E-01    0.53       1.0  T
   3    -42.6804856 -0.975524E-02  0.190E-01    0.85       1.0  T
   4    -42.6811779 -0.692279E-03  0.604E-02    0.77       1.0  T
   5    -42.6812784 -0.100432E-03  0.132E-02    0.77       1.5  T
   6    -42.6812834 -0.505775E-05  0.396E-03    0.77       5.1  T
   7    -42.6812835 -0.803748E-07  0.202E-03    0.77       9.9  T
   8    -42.6812836 -0.639900E-07  0.812E-04    0.77      24.6  T
   9    -42.6812836 -0.166335E-07  0.264E-04    0.77      75.7  T
     SCC iter.                  ...        0 min,  0.025 sec
     gradient                   ...        0 min,  0.026 sec
 * total energy  :   -42.1025432 Eh     change       -0.8977288E-03 Eh
   gradient norm :     0.0271542 Eh/α   predicted    -0.8978390E-03 (   0.01%)
   displ. norm   :     0.2116272 α      lambda       -0.1642329E-02
   maximum displ.:     0.1005669 α      in ANC's #12, #14, #6, ...

........................................................................
.............................. CYCLE   33 ..............................
........................................................................

 iter      E             dE          RMSdq      gap      omega  full diag
   1    -42.6863840 -0.426864E+02  0.204E-01    0.80       0.0  T
   2    -42.6857936  0.590349E-03  0.168E-01    0.72       1.0  T
   3    -42.6830148  0.277881E-02  0.339E-01    0.94       1.0  T
   4    -42.6864284 -0.341358E-02  0.516E-02    0.78       1.0  T
   5    -42.6864910 -0.626386E-04  0.210E-02    0.79       1.0  T
   6    -42.6865055 -0.144674E-04  0.554E-03    0.78       3.6  T
   7    -42.6865061 -0.621139E-06  0.135E-03    0.78      14.8  T
   8    -42.6865061 -0.812216E-08  0.505E-04    0.78      39.6  T
   9    -42.6865061 -0.475332E-08  0.207E-04    0.78      96.4  T
     SCC iter.                  ...        0 min,  0.025 sec
     gradient                   ...        0 min,  0.025 sec
 * total energy  :   -42.1035350 Eh     change       -0.9918545E-03 Eh
   gradient norm :     0.0224649 Eh/α   predicted    -0.8579448E-03 ( -13.50%)
   displ. norm   :     0.2382142 α      lambda       -0.1083476E-02
   maximum displ.:     0.1120682 α      in ANC's #12, #9, #18, ...

........................................................................
.............................. CYCLE   34 ..............................
........................................................................

 iter      E             dE          RMSdq      gap      omega  full diag
   1    -42.6895714 -0.426896E+02  0.119E-01    0.79       0.0  T
   2    -42.6888670  0.704459E-03  0.168E-01    0.71       1.0  T
   3    -42.6893807 -0.513772E-03  0.983E-02    0.82       1.0  T
   4    -42.6896266 -0.245868E-03  0.212E-02    0.77       1.0  T
   5    -42.6896322 -0.562434E-05  0.574E-03    0.78       3.5  T
   6    -42.6896327 -0.415656E-06  0.321E-03    0.78       6.2  T
   7    -42.6896328 -0.104370E-06  0.150E-03    0.78      13.3  T
   8    -42.6896328 -0.713309E-07  0.270E-04    0.78      74.1  T
   9    -42.6896328 -0.340705E-09  0.134E-04    0.78     149.7  T
     SCC iter.                  ...        0 min,  0.025 sec
     gradient                   ...        0 min,  0.025 sec
 * total energy  :   -42.1041558 Eh     change       -0.6207464E-03 Eh
   gradient norm :     0.0194361 Eh/α   predicted    -0.5724833E-03 (  -7.78%)
   displ. norm   :     0.1945420 α      lambda       -0.7360124E-03
   maximum displ.:     0.0863671 α      in ANC's #12, #2, #18, ...

........................................................................
.............................. CYCLE   35 ..............................
........................................................................

 iter      E             dE          RMSdq      gap      omega  full diag
   1    -42.6866523 -0.426867E+02  0.158E-01    0.79       0.0  T
   2    -42.6862659  0.386398E-03  0.128E-01    0.73       1.0  T
   3    -42.6843669  0.189901E-02  0.279E-01    0.91       1.0  T
   4    -42.6866633 -0.229640E-02  0.328E-02    0.79       1.0  T
   5    -42.6866927 -0.293603E-04  0.106E-02    0.78       1.9  T
   6    -42.6866963 -0.365471E-05  0.214E-03    0.78       9.3  T
   7    -42.6866964 -0.245857E-07  0.109E-03    0.78      18.3  T
   8    -42.6866964 -0.154360E-07  0.422E-04    0.78      47.4  T
   9    -42.6866964 -0.294258E-08  0.126E-04    0.78     159.3  T
     SCC iter.                  ...        0 min,  0.025 sec
     gradient                   ...        0 min,  0.026 sec
 * total energy  :   -42.1046205 Eh     change       -0.4646905E-03 Eh
   gradient norm :     0.0134694 Eh/α   predicted    -0.3819345E-03 ( -17.81%)
   displ. norm   :     0.1872510 α      lambda       -0.5357842E-03
   maximum displ.:     0.1286566 α      in ANC's #2, #18, #6, ...

........................................................................
.............................. CYCLE   36 ..............................
........................................................................

 iter      E             dE          RMSdq      gap      omega  full diag
   1    -42.6871921 -0.426872E+02  0.141E-01    0.81       0.0  T
   2    -42.6848207  0.237140E-02  0.267E-01    0.66       1.0  T
   3    -42.6867194 -0.189871E-02  0.157E-01    0.85       1.0  T
   4    -42.6873203 -0.600814E-03  0.283E-02    0.79       1.0  T
   5    -42.6873439 -0.236660E-04  0.611E-03    0.79       3.3  T
   6    -42.6873448 -0.881216E-06  0.217E-03    0.78       9.2  T
   7    -42.6873449 -0.848584E-07  0.103E-03    0.78      19.5  T
   8    -42.6873449 -0.831175E-08  0.380E-04    0.78      52.7  T
   9    -42.6873449 -0.215213E-08  0.112E-04    0.78     179.0  T
     SCC iter.                  ...        0 min,  0.025 sec
     gradient                   ...        0 min,  0.025 sec
 * total energy  :   -42.1049910 Eh     change       -0.3704831E-03 Eh
   gradient norm :     0.0134307 Eh/α   predicted    -0.2772893E-03 ( -25.15%)
   displ. norm   :     0.1925597 α      lambda       -0.4478481E-03
   maximum displ.:     0.1407685 α      in ANC's #2, #12, #1, ...

........................................................................
.............................. CYCLE   37 ..............................
........................................................................

 iter      E             dE          RMSdq      gap      omega  full diag
   1    -42.6853207 -0.426853E+02  0.128E-01    0.82       0.0  T
   2    -42.6836314  0.168930E-02  0.231E-01    0.69       1.0  T
   3    -42.6849723 -0.134089E-02  0.134E-01    0.85       1.0  T
   4    -42.6854240 -0.451710E-03  0.200E-02    0.79       1.0  T
   5    -42.6854335 -0.951476E-05  0.519E-03    0.79       3.9  T
   6    -42.6854342 -0.706933E-06  0.206E-03    0.79       9.7  T
   7    -42.6854343 -0.463491E-07  0.838E-04    0.79      23.9  T
   8    -42.6854343 -0.125009E-08  0.332E-04    0.79      60.3  T
     SCC iter.                  ...        0 min,  0.024 sec
     gradient                   ...        0 min,  0.025 sec
 * total energy  :   -42.1052998 Eh     change       -0.3088698E-03 Eh
   gradient norm :     0.0105304 Eh/α   predicted    -0.2322295E-03 ( -24.81%)
   displ. norm   :     0.1852861 α      lambda       -0.3293918E-03
   maximum displ.:     0.1442591 α      in ANC's #2, #1, #13, ...

........................................................................
.............................. CYCLE   38 ..............................
........................................................................

 iter      E             dE          RMSdq      gap      omega  full diag
   1    -42.6844298 -0.426844E+02  0.122E-01    0.82       0.0  T
   2    -42.6833711  0.105872E-02  0.183E-01    0.72       1.0  T
   3    -42.6838875 -0.516384E-03  0.152E-01    0.87       1.0  T
   4    -42.6844967 -0.609282E-03  0.169E-02    0.80       1.2  T
   5    -42.6845038 -0.704550E-05  0.551E-03    0.80       3.6  T
   6    -42.6845047 -0.913003E-06  0.210E-03    0.80       9.5  T
   7    -42.6845047 -0.512277E-07  0.814E-04    0.80      24.6  T
   8    -42.6845048 -0.144473E-08  0.317E-04    0.80      63.1  T
     SCC iter.                  ...        0 min,  0.026 sec
     gradient                   ...        0 min,  0.013 sec
 * total energy  :   -42.1055322 Eh     change       -0.2323401E-03 Eh
   gradient norm :     0.0080025 Eh/α   predicted    -0.1703515E-03 ( -26.68%)
   displ. norm   :     0.2594731 α      lambda       -0.3241361E-03
   maximum displ.:     0.1930180 α      in ANC's #2, #13, #1, ...

........................................................................
.............................. CYCLE   39 ..............................
........................................................................

 iter      E             dE          RMSdq      gap      omega  full diag
   1    -42.6805547 -0.426806E+02  0.174E-01    0.85       0.0  T
   2    -42.6785484  0.200637E-02  0.260E-01    0.70       1.0  T
   3    -42.6795581 -0.100976E-02  0.208E-01    0.91       1.0  T
   4    -42.6806839 -0.112580E-02  0.343E-02    0.82       1.0  T
   5    -42.6807177 -0.337950E-04  0.894E-03    0.82       2.2  T
   6    -42.6807203 -0.262307E-05  0.324E-03    0.82       6.2  T
   7    -42.6807204 -0.950990E-07  0.149E-03    0.82      13.4  T
   8    -42.6807205 -0.162294E-07  0.555E-04    0.82      36.0  T
   9    -42.6807205 -0.488395E-08  0.236E-04    0.82      84.6  T
     SCC iter.                  ...        0 min,  0.012 sec
     gradient                   ...        0 min,  0.012 sec
 * total energy  :   -42.1057668 Eh     change       -0.2345797E-03 Eh
   gradient norm :     0.0111564 Eh/α   predicted    -0.1729832E-03 ( -26.26%)
   displ. norm   :     0.4190063 α      lambda       -0.4712622E-03
   maximum displ.:     0.2993349 α      in ANC's #2, #13, #1, ...

........................................................................
.............................. CYCLE   40 ..............................
........................................................................

 iter      E             dE          RMSdq      gap      omega  full diag
   1    -42.6769441 -0.426769E+02  0.239E-01    0.88       0.0  T
   2    -42.6758120  0.113218E-02  0.226E-01    0.76       1.0  T
   3    -42.6737454  0.206661E-02  0.348E-01    1.02       1.0  T
   4    -42.6771114 -0.336601E-02  0.559E-02    0.85       1.0  T
   5    -42.6771836 -0.722608E-04  0.206E-02    0.86       1.0  T
   6    -42.6771973 -0.136213E-04  0.563E-03    0.85       3.6  T
   7    -42.6771976 -0.345592E-06  0.302E-03    0.85       6.6  T
   8    -42.6771977 -0.116829E-06  0.879E-04    0.85      22.8  T
   9    -42.6771977 -0.542531E-08  0.468E-04    0.85      42.7  T
     SCC iter.                  ...        0 min,  0.013 sec
     gradient                   ...        0 min,  0.026 sec
 * total energy  :   -42.1062004 Eh     change       -0.4336576E-03 Eh
   gradient norm :     0.0184702 Eh/α   predicted    -0.2770047E-03 ( -36.12%)
   displ. norm   :     0.8748307 α      lambda       -0.1137867E-02
   maximum displ.:     0.5984252 α      in ANC's #2, #13, #1, ...

........................................................................
.............................. CYCLE   41 ..............................
........................................................................

 iter      E             dE          RMSdq      gap      omega  full diag
   1    -42.6615910 -0.426616E+02  0.582E-01    1.00       0.0  T
   2    -42.6591813  0.240961E-02  0.473E-01    0.84       1.0  T
   3    -42.6503443  0.883704E-02  0.713E-01    1.33       1.0  T
   4    -42.6635178 -0.131735E-01  0.156E-01    0.94       1.0  T
   5    -42.6638793 -0.361572E-03  0.786E-02    1.01       1.0  T
   6    -42.6640694 -0.190061E-03  0.152E-02    0.98       1.3  T
   7    -42.6640720 -0.262060E-05  0.788E-03    0.98       2.5  T
   8    -42.6640725 -0.511953E-06  0.219E-03    0.98       9.1  T
   9    -42.6640726 -0.641202E-07  0.108E-03    0.98      18.5  T
  10    -42.6640726 -0.130274E-07  0.506E-04    0.98      39.5  T
  11    -42.6640726 -0.138499E-09  0.228E-04    0.98      87.6  T
     SCC iter.                  ...        0 min,  0.027 sec
     gradient                   ...        0 min,  0.026 sec
 * total energy  :   -42.1077086 Eh     change       -0.1508239E-02 Eh
   gradient norm :     0.0401952 Eh/α   predicted    -0.1004363E-02 ( -33.41%)
   displ. norm   :     0.7492421 α      lambda       -0.2497877E-02
   maximum displ.:     0.5043018 α      in ANC's #2, #13, #1, ...

........................................................................
.............................. CYCLE   42 ..............................
........................................................................

 iter      E             dE          RMSdq      gap      omega  full diag
   1    -42.6481143 -0.426481E+02  0.596E-01    1.14       0.0  T
   2    -42.6494049 -0.129061E-02  0.447E-01    1.01       1.0  T
   3    -42.6463360  0.306892E-02  0.496E-01    1.36       1.0  T
   4    -42.6495045 -0.316842E-02  0.298E-01    1.02       1.0  T
   5    -42.6518040 -0.229959E-02  0.111E-01    1.16       1.0  T
   6    -42.6521368 -0.332765E-03  0.183E-02    1.14       1.1  T
   7    -42.6521409 -0.412233E-05  0.964E-03    1.14       2.1  T
   8    -42.6521416 -0.654307E-06  0.304E-03    1.14       6.6  T
   9    -42.6521417 -0.131638E-06  0.122E-03    1.14      16.4  T
  10    -42.6521417 -0.139352E-07  0.673E-04    1.14      29.7  T
  11    -42.6521417 -0.283109E-08  0.252E-04    1.14      79.4  T
     SCC iter.                  ...        0 min,  0.015 sec
     gradient                   ...        0 min,  0.013 sec
 * total energy  :   -42.1110656 Eh     change       -0.3356957E-02 Eh
   gradient norm :     0.0627316 Eh/α   predicted    -0.1950052E-02 ( -41.91%)
   displ. norm   :     0.5081165 α      lambda       -0.4695550E-02
   maximum displ.:     0.3225206 α      in ANC's #2, #13, #5, ...
 * RMSD in coord.:     1.1500937 α      energy gain  -0.3529130E-01 Eh

generating ANC from model Hessian ...
Using Lindh-Hessian (1995)
 Shifting diagonal of input Hessian by    9.8610780503910599E-003
 Lowest  eigenvalues of input Hessian
    0.000000    0.000000    0.000000    0.000000    0.000000    0.000000
    0.010000    0.010379    0.010535    0.010632    0.010852    0.012945
    0.014589    0.015896    0.019622    0.021307    0.021609    0.026699
 Highest eigenvalues
    2.121871    2.149029    2.289760    2.352514    2.573410    2.965986


........................................................................
.............................. CYCLE   43 ..............................
........................................................................

 iter      E             dE          RMSdq      gap      omega  full diag
   1    -42.6427206 -0.426427E+02  0.485E-01    1.11       0.0  T
   2    -42.6449220 -0.220141E-02  0.318E-01    1.04       1.0  T
   3    -42.6442076  0.714384E-03  0.272E-01    1.19       1.0  T
   4    -42.6408666  0.334098E-02  0.392E-01    0.91       1.0  T
   5    -42.6454119 -0.454527E-02  0.650E-02    1.10       1.0  T
   6    -42.6455221 -0.110245E-03  0.136E-02    1.09       1.5  T
   7    -42.6455249 -0.277360E-05  0.685E-03    1.08       2.9  T
   8    -42.6455253 -0.434933E-06  0.232E-03    1.09       8.6  T
   9    -42.6455254 -0.610732E-07  0.105E-03    1.09      19.0  T
  10    -42.6455254 -0.122451E-07  0.497E-04    1.09      40.2  T
  11    -42.6455254 -0.503164E-09  0.140E-04    1.09     143.2  T
     SCC iter.                  ...        0 min,  0.015 sec
     gradient                   ...        0 min,  0.013 sec
 * total energy  :   -42.1143583 Eh     change       -0.3292710E-02 Eh
   gradient norm :     0.0593186 Eh/α   predicted     0.0000000E+00 (-100.00%)
   displ. norm   :     0.1906058 α      lambda       -0.4727908E-02
   maximum displ.:     0.0966997 α      in ANC's #7, #10, #40, ...

........................................................................
.............................. CYCLE   44 ..............................
........................................................................

 iter      E             dE          RMSdq      gap      omega  full diag
   1    -42.6494139 -0.426494E+02  0.171E-01    1.11       0.0  T
   2    -42.6491771  0.236741E-03  0.143E-01    1.06       1.0  T
   3    -42.6482908  0.886296E-03  0.216E-01    1.20       1.0  T
   4    -42.6495097 -0.121887E-02  0.524E-02    1.08       1.0  T
   5    -42.6495640 -0.542748E-04  0.116E-02    1.10       1.7  T
   6    -42.6495668 -0.284425E-05  0.514E-03    1.10       3.9  T
   7    -42.6495671 -0.273087E-06  0.258E-03    1.10       7.8  T
   8    -42.6495671 -0.585573E-07  0.590E-04    1.10      33.9  T
   9    -42.6495671 -0.570854E-08  0.249E-04    1.10      80.4  T
     SCC iter.                  ...        0 min,  0.013 sec
     gradient                   ...        0 min,  0.013 sec
 * total energy  :   -42.1176356 Eh     change       -0.3277291E-02 Eh
   gradient norm :     0.0293497 Eh/α   predicted    -0.2451128E-02 ( -25.21%)
   displ. norm   :     0.2378444 α      lambda       -0.2465521E-02
   maximum displ.:     0.1142467 α      in ANC's #4, #2, #10, ...

........................................................................
.............................. CYCLE   45 ..............................
........................................................................

 iter      E             dE          RMSdq      gap      omega  full diag
   1    -42.6522531 -0.426523E+02  0.224E-01    1.13       0.0  T
   2    -42.6521390  0.114096E-03  0.152E-01    1.09       1.0  T
   3    -42.6497216  0.241739E-02  0.298E-01    1.26       1.0  T
   4    -42.6522495 -0.252793E-02  0.676E-02    1.09       1.0  T
   5    -42.6523637 -0.114135E-03  0.101E-02    1.12       2.0  T
   6    -42.6523655 -0.185067E-05  0.468E-03    1.12       4.3  T
   7    -42.6523657 -0.218395E-06  0.238E-03    1.12       8.4  T
   8    -42.6523658 -0.440132E-07  0.531E-04    1.12      37.7  T
   9    -42.6523658 -0.306515E-08  0.294E-04    1.12      68.0  T
     SCC iter.                  ...        0 min,  0.013 sec
     gradient                   ...        0 min,  0.012 sec
 * total energy  :   -42.1189759 Eh     change       -0.1340317E-02 Eh
   gradient norm :     0.0151911 Eh/α   predicted    -0.1302499E-02 (  -2.82%)
   displ. norm   :     0.1617085 α      lambda       -0.6029725E-03
   maximum displ.:     0.0964991 α      in ANC's #7, #10, #2, ...

........................................................................
.............................. CYCLE   46 ..............................
........................................................................

 iter      E             dE          RMSdq      gap      omega  full diag
   1    -42.6510857 -0.426511E+02  0.111E-01    1.12       0.0  T
   2    -42.6510858 -0.758002E-07  0.681E-02    1.11       1.0  T
   3    -42.6506787  0.407012E-03  0.116E-01    1.17       1.0  T
   4    -42.6510813 -0.402528E-03  0.226E-02    1.11       1.0  T
   5    -42.6510943 -0.130660E-04  0.525E-03    1.12       3.8  T
   6    -42.6510947 -0.355901E-06  0.238E-03    1.12       8.4  T
   7    -42.6510947 -0.284104E-07  0.795E-04    1.12      25.1  T
   8    -42.6510947 -0.114026E-07  0.257E-04    1.12      77.8  T
     SCC iter.                  ...        0 min,  0.011 sec
     gradient                   ...        0 min,  0.012 sec
 * total energy  :   -42.1192698 Eh     change       -0.2939019E-03 Eh
   gradient norm :     0.0122330 Eh/α   predicted    -0.3093707E-03 (   5.26%)
   displ. norm   :     0.1329406 α      lambda       -0.3730626E-03
   maximum displ.:     0.0670946 α      in ANC's #2, #4, #1, ...

........................................................................
.............................. CYCLE   47 ..............................
........................................................................

 iter      E             dE          RMSdq      gap      omega  full diag
   1    -42.6505800 -0.426506E+02  0.902E-02    1.11       0.0  T
   2    -42.6505679  0.121092E-04  0.567E-02    1.13       1.0  T
   3    -42.6500784  0.489458E-03  0.132E-01    1.06       1.0  T
   4    -42.6505776 -0.499178E-03  0.197E-02    1.12       1.0  T
   5    -42.6505888 -0.111812E-04  0.392E-03    1.11       5.1  T
   6    -42.6505891 -0.290488E-06  0.163E-03    1.12      12.3  T
   7    -42.6505891  0.571544E-08  0.849E-04    1.12      23.6  T
   8    -42.6505891 -0.163402E-07  0.188E-04    1.12     106.1  T
     SCC iter.                  ...        0 min,  0.011 sec
     gradient                   ...        0 min,  0.013 sec
 * total energy  :   -42.1195203 Eh     change       -0.2505228E-03 Eh
   gradient norm :     0.0079035 Eh/α   predicted    -0.1898320E-03 ( -24.23%)
   displ. norm   :     0.1252358 α      lambda       -0.1750986E-03
   maximum displ.:     0.0651930 α      in ANC's #2, #4, #1, ...

........................................................................
.............................. CYCLE   48 ..............................
........................................................................

 iter      E             dE          RMSdq      gap      omega  full diag
   1    -42.6503817 -0.426504E+02  0.102E-01    1.11       0.0  T
   2    -42.6503593  0.224116E-04  0.645E-02    1.12       1.0  T
   3    -42.6497300  0.629257E-03  0.151E-01    1.04       1.0  T
   4    -42.6503717 -0.641683E-03  0.261E-02    1.12       1.0  T
   5    -42.6503918 -0.200922E-04  0.341E-03    1.11       5.9  T
   6    -42.6503920 -0.195985E-06  0.163E-03    1.11      12.3  T
   7    -42.6503920 -0.489885E-07  0.502E-04    1.11      39.8  T
   8    -42.6503921 -0.215930E-08  0.191E-04    1.11     104.7  T
     SCC iter.                  ...        0 min,  0.011 sec
     gradient                   ...        0 min,  0.013 sec
 * total energy  :   -42.1196391 Eh     change       -0.1187974E-03 Eh
   gradient norm :     0.0042972 Eh/α   predicted    -0.8892333E-04 ( -25.15%)
   displ. norm   :     0.1069556 α      lambda       -0.8667495E-04
   maximum displ.:     0.0531528 α      in ANC's #2, #7, #1, ...

........................................................................
.............................. CYCLE   49 ..............................
........................................................................

 iter      E             dE          RMSdq      gap      omega  full diag
   1    -42.6506413 -0.426506E+02  0.947E-02    1.10       0.0  T
   2    -42.6506332  0.806735E-05  0.560E-02    1.12       1.0  T
   3    -42.6501992  0.434006E-03  0.123E-01    1.05       1.0  T
   4    -42.6506286 -0.429377E-03  0.235E-02    1.12       1.0  T
   5    -42.6506464 -0.178079E-04  0.254E-03    1.11       7.9  T
   6    -42.6506465 -0.106976E-06  0.127E-03    1.11      15.8  T
   7    -42.6506465 -0.309291E-07  0.326E-04    1.11      61.4  T
   8    -42.6506466 -0.611749E-09  0.122E-04    1.11     163.4  T
     SCC iter.                  ...        0 min,  0.011 sec
     gradient                   ...        0 min,  0.012 sec
 * total energy  :   -42.1196997 Eh     change       -0.6059856E-04 Eh
   gradient norm :     0.0032519 Eh/α   predicted    -0.4383495E-04 ( -27.66%)
   displ. norm   :     0.0924794 α      lambda       -0.5159673E-04
   maximum displ.:     0.0510636 α      in ANC's #7, #2, #1, ...

........................................................................
.............................. CYCLE   50 ..............................
........................................................................

 iter      E             dE          RMSdq      gap      omega  full diag
   1    -42.6510799 -0.426511E+02  0.854E-02    1.10       0.0  T
   2    -42.6510794  0.553637E-06  0.489E-02    1.11       1.0  T
   3    -42.6509443  0.135052E-03  0.689E-02    1.07       1.0  T
   4    -42.6510648 -0.120472E-03  0.229E-02    1.12       1.0  T
   5    -42.6510826 -0.178077E-04  0.176E-03    1.11      11.4  T
   6    -42.6510827 -0.569614E-07  0.864E-04    1.11      23.2  T
   7    -42.6510827 -0.109673E-07  0.272E-04    1.11      73.4  T
     SCC iter.                  ...        0 min,  0.010 sec
     gradient                   ...        0 min,  0.013 sec
 * total energy  :   -42.1197353 Eh     change       -0.3558488E-04 Eh
   gradient norm :     0.0029911 Eh/α   predicted    -0.2602025E-04 ( -26.88%)
   displ. norm   :     0.0746978 α      lambda       -0.3059487E-04
   maximum displ.:     0.0436695 α      in ANC's #7, #1, #4, ...

   *** GEOMETRY OPTIMIZATION CONVERGED AFTER 50 ITERATIONS ***

[...]
O            0.05732257810118        2.18081325805734       -0.04719683712449
N           -1.46374670276283        0.49638948185891       -0.00236791088220
C           -2.34951100040172        3.91148834083154        0.03719772498523
C           -1.87876165599494       -0.76486972644143        0.00572111152162
O           -3.02309398948841       -1.12627120677176        0.01723015094952
N           -0.84402037892790       -1.81332499143326       -0.00514794908375
C           -1.24389695311902       -3.19789423762659       -0.00809825079596
H            3.22682719053664        1.43700216161035        1.03268384676916
H            3.85191458690140        1.06126054781059       -0.58613043216389
H            2.34047952461052        1.99836211019321       -0.38889646616372
H            3.65300481745165       -1.55675516346704       -0.02632888284159
H           -1.28359134157785        4.04821309295358        0.05404505144084
H           -2.87046645880336        3.84463102557906       -0.89860629883568
H           -2.89447156577971        3.78350934440289        0.95313118243573
H           -0.87786334322685       -3.71084667787729        0.88312154492202
H           -0.88254609617713       -3.70472290746139       -0.90497933562542
H           -2.33421625396986       -3.21473267433954       -0.00572413038612
H            1.65741334194880       -3.13986272200484       -0.01955907213598

 Bond Distances (Angstroems)
 ---------------------------
C1-N2=1.4384         C1-H15=1.0917        C1-H16=1.0881        C1-H17=1.0903        N2-C1=1.4384         N2-C3=1.3233         
N2-C6=1.3686         C3-N2=1.3233         C3-N4=1.3510         C3-H18=1.0724        N4-C3=1.3510         N4-C5=1.3701         
N4-H25=1.0102        C5-N4=1.3701         C5-C6=1.3900         C5-N13=1.3308        C6-N2=1.3686         C6-C5=1.3900         
C6-C7=1.4753         C7-C6=1.4753         C7-O8=1.2187         C7-N9=1.3370         O8-C7=1.2187         N9-C7=1.3370         
N9-C11=1.3278        C10-H19=1.0748       C10-H20=1.0731       C10-H21=1.0735       C11-N9=1.3278        C11-O12=1.2001       
C11-N13=1.4731       O12-C11=1.2001       N13-C5=1.3308        N13-C11=1.4731       N13-C14=1.4412       C14-N13=1.4412       
C14-H22=1.0915       C14-H23=1.0917       C14-H24=1.0905       H15-C1=1.0917        H16-C1=1.0881        H17-C1=1.0903        
H18-C3=1.0724        H19-C10=1.0748       H20-C10=1.0731       H21-C10=1.0735       H22-C14=1.0915       H23-C14=1.0917       
H24-C14=1.0905       H25-N4=1.0102        
 C  H  Rav=1.0838 sigma=0.0085  Rmin=1.0724  Rmax=1.0917    10
 C  C  Rav=1.4327 sigma=0.0426  Rmin=1.3900  Rmax=1.4753     2
 N  H  Rav=1.0102 sigma=0.0000  Rmin=1.0102  Rmax=1.0102     1
 N  C  Rav=1.3761 sigma=0.0519  Rmin=1.3233  Rmax=1.4731    10
 O  C  Rav=1.2094 sigma=0.0093  Rmin=1.2001  Rmax=1.2187     2

 selected bond angles (degree)
 --------------------
H15-C1-N2=110.14               H16-C1-N2=110.36               H16-C1-H15=109.08              H17-C1-N2=108.65               
H17-C1-H15=108.14              H17-C1-H16=110.45              C3-N2-C1=127.19                C6-N2-C1=124.63                
C6-N2-C3=108.17                N4-C3-N2=109.85                H18-C3-N2=125.62               H18-C3-N4=124.52               
C5-N4-C3=108.07                H25-N4-C3=125.58               H25-N4-C5=126.35               C6-C5-N4=106.32                
N13-C5-N4=129.98               N13-C5-C6=123.70               C5-C6-N2=107.59                C7-C6-N2=132.15                
C7-C6-C5=120.24                O8-C7-C6=122.72                N9-C7-C6=112.04                N9-C7-O8=125.24                
C11-N9-C7=130.12               H20-C10-H19=120.20             H21-C10-H19=120.35             H21-C10-H20=119.35             

 selected dihedral angles (degree)
 ---------------------------------
C3-N2-C1-H15=275.60           C3-N2-C1-H16= 36.09           C3-N2-C1-H17=157.33           C6-N2-C1-H15= 94.43           
C6-N2-C1-H16=214.92           C6-N2-C1-H17=336.15           N4-C3-N2-C1=179.07            N4-C3-N2-C6=  0.09            
H18-C3-N2-C1=358.99           H18-C3-N2-C6=180.00           C5-N4-C3-N2=359.97            C5-N4-C3-H18=180.05           
H25-N4-C3-N2=179.95           H25-N4-C3-H18=  0.04          C6-C5-N4-C3=359.96            C6-C5-N4-H25=179.98           
N13-C5-N4-C3=179.62           N13-C5-N4-H25=359.63          C5-C6-N2-C1=180.88            C5-C6-N2-C3=359.89            
C7-C6-N2-C1=  2.42            C7-C6-N2-C3=181.44            N2-C6-C5-N4=  0.09            N2-C6-C5-N13=180.41           
C7-C6-C5-N4=178.76            C7-C6-C5-N13=359.08           O8-C7-C6-N2=  0.10            O8-C7-C6-C5=181.80            
N9-C7-C6-N2=179.82            N9-C7-C6-C5=  1.52            C11-N9-C7-C6=358.95           C11-N9-C7-O8=178.66           
           -------------------------------------------------
          |                Final Singlepoint                |
           -------------------------------------------------

          ...................................................
          :                      SETUP                      :
          :.................................................:
          :  # basis functions                  67          :
          :  # atomic orbitals                  67          :
          :  # shells                           39          :
          :  # electrons                        74          :
          :  max. iterations                   250          :
          :  Hamiltonian                  GFN2-xTB          :
          :  restarted?                      false          :
          :  GBSA solvation                  false          :
          :  PC potential                    false          :
          :  electronic temp.         5000.0000000     K    :
          :  accuracy                    1.0000000          :
          :  -> integral cutoff          0.2500000E+02      :
          :  -> integral neglect         0.1000000E-07      :
          :  -> SCF convergence          0.1000000E-05 Eh   :
          :  -> wf. convergence          0.1000000E-03 e    :
          :  Broyden damping             0.4000000          :
          ...................................................

 iter      E             dE          RMSdq      gap      omega  full diag
   1    -42.6510827 -0.426511E+02  0.115E-04    1.11       0.0  T
   2    -42.6510827  0.201000E-08  0.268E-04    1.11      74.6  T
   3    -42.6510827 -0.214934E-08  0.739E-05    1.11     270.8  T

   *** convergence criteria satisfied after 3 iterations ***

         #    Occupation            Energy/Eh            Energy/eV
      -------------------------------------------------------------
         1        2.0000           -0.9110041             -24.7897
       ...           ...                  ...                  ...
        31        1.9980           -0.6131487             -16.6846
        32        1.9978           -0.6112557             -16.6331
        33        1.9709           -0.5702874             -15.5183
        34        1.9119           -0.5522720             -15.0281
        35        1.9054           -0.5511034             -14.9963
        36        1.8636           -0.5449440             -14.8287
        37        1.7122           -0.5317864             -14.4706 (HOMO)
        38        0.6268           -0.4911297             -13.3643 (LUMO)
        39        0.0176           -0.4287319             -11.6664
        40        0.0014           -0.3883535             -10.5676
        41        0.0002           -0.3580661              -9.7435
        42        0.0000           -0.2620556              -7.1309
       ...           ...                  ...                  ...
        67                          0.5701627              15.5149
      -------------------------------------------------------------
                  HL-Gap            0.0406567 Eh            1.1063 eV
             Fermi-level           -0.5035490 Eh          -13.7023 eV

 SCC (total)                   0 d,  0 h,  0 min,  0.035 sec
 SCC setup                      ...        0 min,  0.000 sec (  0.542%)
 Dispersion                     ...        0 min,  0.000 sec (  0.530%)
 classical contributions        ...        0 min,  0.000 sec (  0.201%)
 integral evaluation            ...        0 min,  0.005 sec ( 13.454%)
 iterations                     ...        0 min,  0.005 sec ( 12.734%)
 molecular gradient             ...        0 min,  0.026 sec ( 72.148%)
 printout                       ...        0 min,  0.000 sec (  0.352%)

         :::::::::::::::::::::::::::::::::::::::::::::::::::::
         ::                     SUMMARY                     ::
         :::::::::::::::::::::::::::::::::::::::::::::::::::::
         :: total energy             -42.119735330480 Eh    ::
         :: gradient norm              0.002989487638 Eh/a0 ::
         :: HOMO-LUMO gap              1.106323784585 eV    ::
         ::.................................................::
         :: SCC energy               -42.651082675833 Eh    ::
         :: -> isotropic ES            0.142438600782 Eh    ::
         :: -> anisotropic ES         -0.008708598872 Eh    ::
         :: -> anisotropic XC          0.019136232748 Eh    ::
         :: -> dispersion             -0.021218900226 Eh    ::
         :: repulsion energy           0.531297260194 Eh    ::
         :: add. restraining           0.000000270779 Eh    ::
         :: total charge               1.000000000000 e     ::
         :::::::::::::::::::::::::::::::::::::::::::::::::::::

           -------------------------------------------------
          |                Property Printout                |
           -------------------------------------------------

    * Orbital Energies and Occupations

         #    Occupation            Energy/Eh            Energy/eV
      -------------------------------------------------------------
         1        2.0000           -0.9110041             -24.7897
       ...           ...                  ...                  ...
        25        1.9998           -0.6534080             -17.7801
        26        1.9998           -0.6474386             -17.6177
        27        1.9995           -0.6360710             -17.3084
        28        1.9986           -0.6187054             -16.8358
        29        1.9984           -0.6163120             -16.7707
        30        1.9983           -0.6154716             -16.7478
        31        1.9980           -0.6131487             -16.6846
        32        1.9978           -0.6112557             -16.6331
        33        1.9709           -0.5702874             -15.5183
        34        1.9119           -0.5522720             -15.0281
        35        1.9054           -0.5511034             -14.9963
        36        1.8636           -0.5449440             -14.8287
        37        1.7122           -0.5317864             -14.4706 (HOMO)
        38        0.6268           -0.4911297             -13.3643 (LUMO)
        39        0.0176           -0.4287319             -11.6664
        40        0.0014           -0.3883535             -10.5676
        41        0.0002           -0.3580661              -9.7435
        42        0.0000           -0.2620556              -7.1309
        43                         -0.1965868              -5.3494
        44                         -0.1748236              -4.7572
        45                         -0.1395535              -3.7974
        46                         -0.0833557              -2.2682
        47                         -0.0576043              -1.5675
        48                         -0.0354120              -0.9636
       ...                                ...                  ...
        67                          0.5701627              15.5149
      -------------------------------------------------------------
                  HL-Gap            0.0406567 Eh            1.1063 eV
             Fermi-level           -0.5035490 Eh          -13.7023 eV

     #   Z          covCN         q      C6AA      α(0)
     1   6 C        3.692    -0.091    22.428     6.776
     2   7 N        2.834     0.088    19.710     6.594
     3   6 C        3.058     0.057    26.671     8.469
     4   7 N        2.798    -0.065    22.490     7.043
     5   6 C        3.030     0.123    25.265     8.245
     6   6 C        3.132    -0.018    28.251     8.701
     7   6 C        2.762     0.296    21.978     7.677
     8   8 O        0.858    -0.372    21.130     6.163
     9   7 N        1.843    -0.250    27.368     7.753
    10   6 C        2.779    -0.063    29.556     8.904
    11   6 C        2.708     0.338    21.249     7.545
    12   8 O        0.860    -0.326    20.258     6.035
    13   7 N        2.735    -0.070    22.589     7.059
    14   6 C        3.693    -0.067    21.971     6.707
    15   1 H        0.924     0.113     1.671     2.021
    16   1 H        0.925     0.104     1.753     2.070
    17   1 H        0.924     0.135     1.495     1.912
    18   1 H        0.926     0.125     1.575     1.962
    19   1 H        0.926     0.152     1.376     1.834
    20   1 H        0.926     0.135     1.499     1.915
    21   1 H        0.926     0.134     1.501     1.916
    22   1 H        0.924     0.081     1.966     2.193
    23   1 H        0.924     0.081     1.966     2.193
    24   1 H        0.924     0.129     1.546     1.945
    25   1 H        0.860     0.229     0.967     1.541

 Mol. C6AA /au·bohr⁶  :       6641.854541
 Mol. C8AA /au·bohr⁸  :     153027.825533
 Mol. α(0) /au        :        125.173007


Wiberg/Mayer (AO) data.
largest (>0.10) Wiberg bond orders for each atom

 ---------------------------------------------------------------------------
     #   Z sym  total        # sym  WBO       # sym  WBO       # sym  WBO
 ---------------------------------------------------------------------------
     1   6 C    3.913 --     2 N    0.985    16 H    0.969    17 H    0.958
                            15 H    0.952
     2   7 N    3.716 --     3 C    1.407     6 C    1.178     1 C    0.985
     3   6 C    3.885 --     2 N    1.407     4 N    1.283    18 H    0.952
     4   7 N    3.589 --     3 C    1.283     5 C    1.170    25 H    0.919
     5   6 C    3.951 --     6 C    1.333    13 N    1.272     4 N    1.170
     6   6 C    3.814 --     5 C    1.333     2 N    1.178     7 C    1.001
     7   6 C    3.948 --     8 O    1.610     9 N    1.253     6 C    1.001
     8   8 O    1.921 --     7 C    1.610     9 N    0.135
     9   7 N    2.871 --    11 C    1.270     7 C    1.253     8 O    0.135
                            12 O    0.112
    10   6 C    2.948 --    21 H    0.979    20 H    0.979    19 H    0.968
    11   6 C    3.946 --    12 O    1.689     9 N    1.270    13 N    0.907
    12   8 O    1.987 --    11 C    1.689     9 N    0.112
    13   7 N    3.464 --     5 C    1.272    14 C    0.987    11 C    0.907
    14   6 C    3.916 --    13 N    0.987    22 H    0.963    23 H    0.963
                            24 H    0.959
    15   1 H    0.985 --     1 C    0.952
    16   1 H    0.988 --     1 C    0.969
    17   1 H    0.980 --     1 C    0.958
    18   1 H    0.983 --     3 C    0.952
    19   1 H    0.974 --    10 C    0.968
    20   1 H    0.980 --    10 C    0.979
    21   1 H    0.980 --    10 C    0.979
    22   1 H    0.981 --    14 C    0.963
    23   1 H    0.981 --    14 C    0.963
    24   1 H    0.981 --    14 C    0.959
    25   1 H    0.947 --     4 N    0.919
 ---------------------------------------------------------------------------

Topologies differ in total number of bonds
Writing topology from bond orders to xtbtopo.mol

molecular dipole:
                 x           y           z       tot (Debye)
 q only:        2.700      -0.756       0.026
   full:        3.215      -1.410       0.036       8.923
molecular quadrupole (traceless):
                xx          xy          yy          xz          yz          zz
 q only:        3.550     -17.625      22.795      -0.088       0.559     -26.345
  q+dip:        2.044     -21.150      21.376       0.024       0.624     -23.420
   full:        0.359     -20.960      21.663       0.025       0.691     -22.021

           -------------------------------------------------
          |                Geometry Summary                 |
           -------------------------------------------------

      molecular mass/u    :      195.1988581
   center of mass at/Å    :       -0.0535380      -0.1958993      -0.0042615
  moments of inertia/u·Å² :        0.6456117E+03   0.7393663E+03   0.1375034E+04
rotational constants/cm⁻¹ :        0.2611110E-01   0.2280011E-01   0.1225979E-01

 * 23 selected distances

     #   Z          #   Z                                           value/Å
     1   6 C        2   7 N                                       1.4383806
     2   7 N        3   6 C                                       1.3233211
     3   6 C        4   7 N                                       1.3509655
     4   7 N        5   6 C                                       1.3700623
     2   7 N        6   6 C                                       1.3686010
     5   6 C        6   6 C                                       1.3900403
     7   6 C        8   8 O                                       1.2187461
     7   6 C        9   7 N                                       1.3369632
     9   7 N       11   6 C                                       1.3278095
    11   6 C       12   8 O                                       1.2001001
     5   6 C       13   7 N                                       1.3308090
    13   7 N       14   6 C                                       1.4411601 (max)
     1   6 C       15   1 H                                       1.0917430
     1   6 C       16   1 H                                       1.0881014
     1   6 C       17   1 H                                       1.0902766
     3   6 C       18   1 H                                       1.0724477
    10   6 C       19   1 H                                       1.0747848
    10   6 C       20   1 H                                       1.0731234
    10   6 C       21   1 H                                       1.0734500
    14   6 C       22   1 H                                       1.0915007
    14   6 C       23   1 H                                       1.0917168
    14   6 C       24   1 H                                       1.0904520
     4   7 N       25   1 H                                       1.0101724 (min)

 * 5 distinct bonds (by element types)

   Z      Z             #   av. dist./Å        max./Å        min./Å
   1 H    6 C          10     1.0837597     1.0917430     1.0724477
   6 C    6 C           1     1.3900403     1.3900403     1.3900403
   1 H    7 N           1     1.0101724     1.0101724     1.0101724
   6 C    7 N           9     1.3653414     1.4411601     1.3233211
   6 C    8 O           2     1.2094231     1.2187461     1.2001001


optimized geometry written to: xtbopt.xyz


           -------------------------------------------------
          | TOTAL ENERGY              -42.119735330480 Eh   |
          | GRADIENT NORM               0.002989487638 Eh/α |
          | HOMO-LUMO GAP               1.106323784585 eV   |
           -------------------------------------------------

------------------------------------------------------------------------
 * finished run on 2024/06/05 at 20:00:19.471     
------------------------------------------------------------------------
 total:
 * wall-time:     0 d,  0 h,  0 min,  2.619 sec
 *  cpu-time:     0 d,  0 h,  0 min,  1.649 sec
 * ratio c/w:     0.630 speedup
 SCF:
 * wall-time:     0 d,  0 h,  0 min,  0.063 sec
 *  cpu-time:     0 d,  0 h,  0 min,  0.037 sec
 * ratio c/w:     0.585 speedup
 ANC optimizer:
 * wall-time:     0 d,  0 h,  0 min,  2.528 sec
 *  cpu-time:     0 d,  0 h,  0 min,  1.600 sec
 * ratio c/w:     0.633 speedup

