25
 energy: 0.000000000000 xtb: 6.6.1 (8d0f1dd)
C            3.23720132972391        1.16630909158653        0.08434468864950
N            2.29877796055224        0.07527476373246        0.03981602671198
C            2.58028186251803       -1.21425391179017        0.03006175752192
N            1.43813944744728       -1.93419254010258        0.00098261751768
C            0.39035684826767       -1.05887462812143       -0.00790371763344
C            0.93510047688824        0.21347817468824        0.01709077332874
C            0.09450143016486        1.40504290868848       -0.00410946993748
O            0.49712746915594        2.54126690785742       -0.00342325656480
N           -1.25076628431515        1.06271869620815       -0.03085477937476
C           -2.21907191394203        2.15522079838987       -0.05001256521996
C           -1.81739470187490       -0.20012724136556       -0.04692818139228
O           -2.99983858926755       -0.37846413507442       -0.07008877579474
N           -0.92618577614240       -1.30210203518959       -0.03682761236648
C           -1.46982251276835       -2.64643077634382       -0.06029819901142
H            3.71247229913541        1.21471443890471        1.06488839270555
H            4.00791460421487        1.03430799217987       -0.67357688121503
H            2.69909982127087        2.09770098766290       -0.09130154035862
H            3.56654087521359       -1.63682977417947        0.04233139674524
H           -1.67107945562430        3.09322822573871       -0.02552706696334
H           -2.82428927394145        2.09428605349656       -0.95318074103337
H           -2.87644002486466        2.07745706351925        0.81450059976605
H           -1.17061985538665       -3.19584861009707        0.83242224714061
H           -1.14560246782873       -3.17511580834413       -0.95688266944647
H           -2.55549768731684       -2.55659960601237       -0.07459039105944
H            1.38130842369251       -2.94313824728853       -0.01389874052104
25
 energy: -3.029107691119 xtb: 6.6.1 (8d0f1dd)
C            3.23963664491878        1.17368873493003        0.09260315969963
N            2.30473893354887        0.09166051921853        0.04165254197896
C            2.60204667754454       -1.23365923876989        0.04147917216260
N            1.43505178222494       -1.94702785858292        0.00628556009879
C            0.39927252378699       -1.06723839549996       -0.01369922735076
C            0.92617581045076        0.21374814928351        0.00876539157526
C            0.09136372974201        1.38469029774639       -0.02205475207253
O            0.48915173349097        2.54951148296051       -0.02211825053481
N           -1.27513090655475        1.04419176792395       -0.02622360225481
C           -2.22891155337461        2.16253294737067       -0.02808832210010
C           -1.82591317791073       -0.21574314094284       -0.06039947133967
O           -3.01988948322309       -0.40794937198444       -0.09983036802080
N           -0.93002666202750       -1.31507766236034       -0.05186222119643
C           -1.45683450934417       -2.66281204648179       -0.07834832754680
H            3.71709246929232        1.21756093555349        1.07488338839516
H            4.00893031761181        1.03987523227791       -0.66926958922700
H            2.69364962121031        2.09842708964970       -0.08224094708662
H            3.58225000992396       -1.65329172115303        0.06426545788115
H           -1.64838893634558        3.07856758033620       -0.11218133782935
H           -2.90108530076407        2.04931262303330       -0.87787274353667
H           -2.85122872040493        2.32767243555916        0.90018987726984
H           -1.15111614427479       -3.21333779172829        0.81376202959158
H           -1.12233023227266       -3.19153730962137       -0.97337407781284
H           -2.54266519709833       -2.58338511560329       -0.09484157343378
H            1.37637487482138       -2.95135135437115       -0.00444785511538
25
 energy: 9.409631903917 xtb: 6.6.1 (8d0f1dd)
C            3.24034036046723        1.17718566506249        0.10352944623224
N            2.30629529090332        0.10786265058072        0.04288115959275
C            2.62307061621119       -1.25476951975787        0.06013485142649
N            1.43022829760756       -1.95893740127409        0.01539510767472
C            0.40957486709639       -1.08004001138584       -0.02216469614348
C            0.91017413179250        0.21284308619193       -0.00286010840141
C            0.08635644681285        1.35411892539369       -0.03639403297329
O            0.47230236783609        2.54395262187556       -0.04874286421757
N           -1.31536673519938        1.02588134403505       -0.00876146026971
C           -2.24171742536776        2.18051161666884        0.00268925544998
C           -1.83385140652481       -0.23526139594831       -0.08513401999230
O           -3.03288177245246       -0.45400093923933       -0.15468325976170
N           -0.93422081709883       -1.33108176010127       -0.07683815537148
C           -1.43642021934097       -2.68561325744931       -0.10553626618622
H            3.72273824072146        1.21753297138325        1.08632892726614
H            4.00964134843416        1.04693134580091       -0.66226514241031
H            2.68864287154682        2.09765409547655       -0.06808170689217
H            3.59725106540750       -1.66625675973660        0.09727960276138
H           -1.61966626406887        3.06243650890237       -0.25346675225573
H           -3.02471959569431        1.96975360953808       -0.74873565177962
H           -2.78841981683973        2.69625815529632        1.01899572929159
H           -1.12286368062846       -3.23755229549295        0.78616422770673
H           -1.08889385963377       -3.21538427784823       -0.99788498483616
H           -2.52290115996856       -2.62472874849356       -0.12513441259466
H            1.37752115295322       -2.96026744073429        0.01031911887833
25
 energy: 28.660503182390 xtb: 6.6.1 (8d0f1dd)
C            3.23963364275071        1.17391476724424        0.10961313899853
N            2.30457759910461        0.10972599739944        0.04401669601285
C            2.63178992660289       -1.27068824773975        0.07905337770497
N            1.42956322061633       -1.96982241904709        0.02841506481625
C            0.41532549373680       -1.09389727658648       -0.02915693750370
C            0.89985791426701        0.20678184893815       -0.01325789047042
C            0.08111740592259        1.33699413398191       -0.04808996395558
O            0.46010458040237        2.53512619416832       -0.07983749173968
N           -1.34709846085917        1.02568165977065        0.01028845460823
C           -2.25100789204800        2.21308779224326        0.03306161421898
C           -1.83972251810922       -0.24696374043688       -0.11234889976911
O           -3.03709831517769       -0.49237918433515       -0.21291664121176
N           -0.93468725480724       -1.34259396784958       -0.10140834229903
C           -1.41522403020048       -2.70666088307996       -0.13053990031268
H            3.72688279364437        1.21312972539988        1.09130440323514
H            4.00882350593825        1.04888248783135       -0.65884938703398
H            2.68702281525870        2.09472812913949       -0.05860814000876
H            3.60641804180967       -1.67546700432342        0.13359842100392
H           -1.62779434452176        3.05062281584112       -0.37466365983726
H           -3.13451595953359        1.91581707398967       -0.59915819976473
H           -2.72521812370495        2.99883637513746        1.09585310886249
H           -1.09389686785528       -3.25676675255271        0.76152282609072
H           -1.05558314138166       -3.23793039102299       -1.01899366645842
H           -2.50275036988899       -2.66934476166003       -0.15317008974580
H            1.38569464300611       -2.97178558370670        0.03130601675343
25
 energy: 46.264731493523 xtb: 6.6.1 (8d0f1dd)
C            3.23802993268820        1.16596580319167        0.11053027606982
N            2.30174994417017        0.10008407615127        0.04547260577790
C            2.63063751747616       -1.27890128716239        0.09297852502488
N            1.43372664204001       -1.97776883265029        0.04145508152337
C            0.41775187859785       -1.10723126824054       -0.03309595793946
C            0.89694453171904        0.19618902120892       -0.02038561874286
C            0.07778431145274        1.32895707079284       -0.05500775446535
O            0.45094430988106        2.52041309307837       -0.10971708719810
N           -1.36520859533926        1.03132374424531        0.02448893173724
C           -2.26028780607938        2.23458309239077        0.04827507605783
C           -1.84142976391151       -0.25454160082377       -0.13823379891387
O           -3.02976542952848       -0.51918794495425       -0.26669134585968
N           -0.93130394064050       -1.35050488248001       -0.12019604121073
C           -1.39685013795258       -2.72347480021991       -0.14921975146162
H            3.72960893849854        1.20555271639274        1.08968569967184
H            4.00593904071150        1.04710208461039       -0.66035465762323
H            2.68676967902627        2.08955887435033       -0.05410057372480
H            3.60935526824521       -1.67756893588175        0.16534525837095
H           -1.68137855370568        3.01915928166314       -0.44393682736535
H           -3.19443488182137        1.89666546124904       -0.46249085122615
H           -2.68555137236921        3.25767083157139        1.13576321942677
H           -1.06853509916915       -3.26915642845917        0.74372241274750
H           -1.02780476428016       -3.25424809320254       -1.03459768466638
H           -2.48480333568508       -2.70914542718707       -0.17422728164028
H            1.40032599094799       -2.98246686089028        0.05157205782441
25
 energy: 58.699806257400 xtb: 6.6.1 (8d0f1dd)
C            3.23600957630662        1.15862947496761        0.11495669377796
N            2.30036466156818        0.08637013356613        0.05200874991068
C            2.62279397539573       -1.27465688131749        0.09736418487749
N            1.44156924526724       -1.97926783660110        0.04559568968830
C            0.41655908714881       -1.11499034365341       -0.03195884438492
C            0.90141541983847        0.18668909186224       -0.02029883419688
C            0.07884346837004        1.32938895633335       -0.06032519290134
O            0.44642575670546        2.50783974694676       -0.12784254539667
N           -1.36227947965507        1.03235819084815        0.02602076691843
C           -2.26313252282886        2.22724001283679        0.04758321743479
C           -1.83995572618593       -0.25991229004718       -0.14517116612187
O           -3.01718139573483       -0.52687954421802       -0.29588796417104
N           -0.92626385531463       -1.35455594269070       -0.12544139036000
C           -1.38924129044692       -2.73103179190398       -0.16254838907641
H            3.72787691499945        1.19626446744901        1.09258341789957
H            4.00231892223447        1.04435327634848       -0.65709915652766
H            2.68585213375275        2.08439061413508       -0.04631025130337
H            3.60566888542088       -1.66960837203087        0.18088956544089
H           -1.73890966557565        2.97580169245797       -0.52130864747175
H           -3.22855025968466        1.86503608701163       -0.34639856947791
H           -2.65332778276645        3.44902524238247        1.16530948161340
H           -1.05852879880031       -3.27519523246070        0.72940525259080
H           -1.01586656174722       -3.25497136919241       -1.04931606016463
H           -2.47614690281246       -2.72716295522682       -0.18932096291210
H            1.41590049951726       -2.98612563905874        0.05454486650888
25
 energy: 70.785878770449 xtb: 6.6.1 (8d0f1dd)
C            3.23363734286555        1.15292399225055        0.12004041740917
N            2.30032537132278        0.07175378479867        0.06035116141924
C            2.61319557844918       -1.26274503910154        0.09794024526464
N            1.45194747417106       -1.97732823548904        0.04545869502966
C            0.41432424012773       -1.12055350177176       -0.02878128225899
C            0.90758076919442        0.17871191895294       -0.01578708742968
C            0.08137681873204        1.32928458701009       -0.06152281180634
O            0.44415146269367        2.49402891213309       -0.14070339182712
N           -1.34846726644001        1.02596134764517        0.01119439318148
C           -2.25700763348349        2.19515297710836        0.03338914857295
C           -1.83586482797411       -0.27026606885924       -0.15427303829461
O           -3.00184088472075       -0.53382589454980       -0.32069407222665
N           -0.91942527822485       -1.36070598258964       -0.12555959163800
C           -1.38611945889313       -2.73783814020437       -0.17104805677980
H            3.72397990232380        1.18994036771521        1.09671614799123
H            3.99939248083564        1.04296002842564       -0.65154793043734
H            2.68310966478355        2.07936035268980       -0.03897293583283
H            3.59947886510167       -1.65671662390108        0.18580532705415
H           -1.80367692775032        2.92374421186069       -0.57524567740443
H           -3.24250787833321        1.82915065772000       -0.23955852810275
H           -2.63482381186693        3.65310718517194        1.19118930678137
H           -1.05763545385889       -3.28231474204569        0.71988144526716
H           -1.01216777013827       -3.25509041190476       -1.06008023745695
H           -2.47196106653213       -2.73368162085163       -0.20012095871047
H            1.43121259258734       -2.98598527346937        0.04896322442956
25
 energy: 83.128648045723 xtb: 6.6.1 (8d0f1dd)
C            3.22985539042044        1.14880083476575        0.12831187636292
N            2.30148904838278        0.05469973723022        0.07008153440626
C            2.60378230429173       -1.24627415809542        0.09794496702943
N            1.46687131904251       -1.97634079720624        0.04076045023138
C            0.41250063288137       -1.12695642752082       -0.02770618201254
C            0.91546974517774        0.16927327427599       -0.01134119059710
C            0.08062867067295        1.32842362305802       -0.06424129320498
O            0.44277906843481        2.47835462345685       -0.14747150716868
N           -1.32586518251216        1.01069305333166       -0.02068665367907
C           -2.24331089709537        2.13440249405097        0.01178369605583
C           -1.82846828876346       -0.28802713952694       -0.16467494090300
O           -2.98491777974168       -0.54551097482142       -0.34364094841577
N           -0.90764514057333       -1.37250175108611       -0.12434073910191
C           -1.38280899546905       -2.74771726129051       -0.18032675509465
H            3.71591737136586        1.18493736168328        1.10514118179001
H            3.99646347261665        1.04313430326190       -0.64070110025115
H            2.67792233803744        2.07512647879066       -0.02902229790726
H            3.59371632716167       -1.64255262332190        0.18588702767424
H           -1.87351475406565        2.87193174449108       -0.64447318323148
H           -3.25497845096048        1.77253133315049       -0.11729009454572
H           -2.63180117167642        3.93391907919630        1.24086092403611
H           -1.05953496069134       -3.29395761722317        0.70908309642023
H           -1.01140145817047       -3.25660403826277       -1.07337159394894
H           -2.46825371332089       -2.73439591589062       -0.21160943930582
H            1.44731940952670       -2.98636044775296        0.03807707755623
25
 energy: 89.932953930319 xtb: 6.6.1 (8d0f1dd)
C            3.22600035542755        1.14899548812538        0.12724303508534
N            2.30098328371957        0.04591606827096        0.07092708886889
C            2.59970735011095       -1.23506737609926        0.10140725797764
N            1.47740257732445       -1.97741054902841        0.03900799106561
C            0.41159643527408       -1.13010299261145       -0.03072216366151
C            0.91903074616434        0.16434788579736       -0.01428481937686
C            0.07257010669232        1.32664286748054       -0.06889022317486
O            0.44062928722130        2.46939666263295       -0.14794263196507
N           -1.31028372162786        0.99436922910308       -0.05954497076458
C           -2.22886726377793        2.07787331062542       -0.01332806709174
C           -1.82324287289320       -0.30506002834048       -0.18068441833959
O           -2.97829807691889       -0.55823011529620       -0.35684299139960
N           -0.89813737752235       -1.38497203121195       -0.12439112525227
C           -1.37890864599082       -2.75791161660514       -0.17972245081074
H            3.70989876464433        1.18695500101869        1.10414644961456
H            3.99364570452274        1.04329399173741       -0.63918194666222
H            2.67300704698312        2.07454815307383       -0.03126912996832
H            3.59142068619179       -1.63682801029661        0.18527781855271
H           -1.90970566360504        2.85059214435261       -0.59959657709864
H           -3.21890687926828        1.76844488068494       -0.08398449559982
H           -2.67499199927308        4.11330274154308        1.26637576409143
H           -1.05908862299807       -3.30270843397038        0.71028820868098
H           -1.01064862907733       -3.26481950212585       -1.07388954057422
H           -2.46549678363652       -2.73489313327979       -0.21163999173844
H            1.45289849728518       -2.98764584683645        0.03827584173589
25
 energy: 90.403066911904 xtb: 6.6.1 (8d0f1dd)
C            3.22606504391379        1.15326041532300        0.13071525813208
N            2.30462978246741        0.04450980960060        0.07060242412818
C            2.60505599372954       -1.22931917679778        0.11039980031011
N            1.48887031321220       -1.98306926041029        0.03476116562324
C            0.41483986575923       -1.12860217505652       -0.03751508673262
C            0.92611232249944        0.16459735151487       -0.02305198739011
C            0.06699144821667        1.32684380597513       -0.08653926845540
O            0.45440468732793        2.47474723084977       -0.14038976919587
N           -1.27976375331845        0.97106902873773       -0.13224987125207
C           -2.19674864730223        1.98796925142167       -0.06559125350849
C           -1.81146909177538       -0.32309537033971       -0.19643065876379
O           -2.97925250753654       -0.56236186027181       -0.35029344168084
N           -0.88660067390894       -1.39958605742024       -0.12298861659108
C           -1.37912007598138       -2.76435761721866       -0.17724402739020
H            3.70540952047125        1.18954044855173        1.10999151828812
H            3.99534024219657        1.04313609349002       -0.63236935239936
H            2.67023584227709        2.07588827248353       -0.02974132680459
H            3.59484920672337       -1.64347712227227        0.18036735870174
H           -1.93307666564324        2.89253857580014       -0.53279687778883
H           -3.23192569928599        1.72957291196189       -0.07115530265125
H           -2.73901947554918        4.26090702430325        1.32133504964490
H           -1.06589310541574       -3.30968310426755        0.71306995599584
H           -1.01588144957856       -3.26925442929429       -1.07357706524786
H           -2.46827976685422       -2.72233308646030       -0.21026737430582
H            1.44644094832768       -2.99041217145958        0.03799266152854
25
 energy: 91.178127835302 xtb: 6.6.1 (8d0f1dd)
C            3.22820407853152        1.16222288771980        0.12634136055677
N            2.30551425335726        0.06275891408624        0.06036445048199
C            2.62260448918704       -1.23822397041669        0.11976639921559
N            1.49313804877365       -1.99030106254354        0.03286215636761
C            0.42287592523098       -1.12547545298501       -0.04516574582737
C            0.92331610185872        0.17431612873079       -0.03659467606459
C            0.05985720246205        1.31829902007936       -0.10020440134364
O            0.46995752727931        2.49166998567797       -0.11571272174315
N           -1.27529010829696        0.95017570999183       -0.18785267774658
C           -2.17900438126592        1.91742788716987       -0.14247303676307
C           -1.80453659963297       -0.34420095686032       -0.20540638254026
O           -2.99876345082296       -0.57402391686969       -0.31673724965237
N           -0.88597059484107       -1.41494908522283       -0.12340193395587
C           -1.37927497543794       -2.77134216692229       -0.16863468775877
H            3.70908665550296        1.19569921545442        1.10676558003771
H            3.99619529832164        1.04624628458127       -0.63907281657072
H            2.66696428752992        2.08004918806084       -0.03475961540382
H            3.60627921327226       -1.65835172509940        0.16992995347918
H           -1.86121950471700        2.98564580232898       -0.36175042840178
H           -3.21300781844901        1.71846355349780       -0.19131433690211
H           -2.87001877648906        4.30918426530602        1.37771290014407
H           -1.06672057134155       -3.31536646000990        0.72304781324979
H           -1.01914945212929       -3.27931983881060       -1.06514452272057
H           -2.47090357772304       -2.71909598928630       -0.19880328505264
H            1.43208103481177       -2.99247942891435        0.04327181710923
25
 energy: 88.642950013109 xtb: 6.6.1 (8d0f1dd)
C            3.23007735346392        1.16245033109136        0.13022903844117
N            2.30736918120711        0.06857286514187        0.06077436422154
C            2.63061204138151       -1.24773964013167        0.11796974073351
N            1.49372851990828       -1.99061473104045        0.03403284555960
C            0.43109433427721       -1.13311674907598       -0.04945410372012
C            0.92127722230148        0.17290227308503       -0.04142618909140
C            0.07022660722470        1.30457574086548       -0.11059353701417
O            0.47025707825225        2.48666214356232       -0.11672375022358
N           -1.29102470984149        0.94927236251229       -0.19663868998806
C           -2.19515906000645        1.93801312942509       -0.18144491628135
C           -1.79994063242721       -0.35486322660631       -0.21890412373622
O           -2.99567321358667       -0.58872656457940       -0.31426449476178
N           -0.88713329314421       -1.42043586952329       -0.13329774755936
C           -1.37663727862484       -2.77686535596526       -0.16778146961356
H            3.71140588350016        1.19833462192485        1.11050268837915
H            3.99868321838651        1.05218127530554       -0.63695425636035
H            2.66588959929756        2.07965011392862       -0.03047508648819
H            3.61374633794780       -1.65732817794502        0.16955742824256
H           -1.79904040059365        2.96583250153009       -0.30445696195549
H           -3.27293677426209        1.71563014333766       -0.22203132430892
H           -2.90480408875574        4.39445572014799        1.41474644708064
H           -1.06419857761587       -3.31856229399524        0.72671591438921
H           -1.01828300053515       -3.29132087605618       -1.06183854563778
H           -2.46619856530359       -2.72674898291253       -0.19624809018973
H            1.43887652252077       -2.99318196528263        0.04503873207724
25
 energy: 87.434572145146 xtb: 6.6.1 (8d0f1dd)
C            3.23117855254598        1.15893269022905        0.12942848285708
N            2.30784443574926        0.06688491001195        0.06251418302306
C            2.62820082474302       -1.25375351851403        0.10642198620458
N            1.48958248028298       -1.98619551054074        0.03208471635921
C            0.43417493263645       -1.14030559507715       -0.04809441438714
C            0.92004577228935        0.16944448194016       -0.03443127562057
C            0.08379093018451        1.29771355121137       -0.10308876032768
O            0.46122669718225        2.48139442831987       -0.11330271571528
N           -1.30353560608208        0.95408023061623       -0.16673684818356
C           -2.21565526446254        1.96057400087856       -0.19807920765878
C           -1.79726557810139       -0.35863408467962       -0.20828547911762
O           -2.98852859607583       -0.59109499919313       -0.30333480328062
N           -0.88963200276549       -1.41867124971404       -0.13640500077132
C           -1.37540242231636       -2.77808078310718       -0.17087268624621
H            3.71527721271724        1.19747652853904        1.10772942420585
H            3.99854909983148        1.05528396136700       -0.64043547593844
H            2.66787632530987        2.07892032282777       -0.02894071740521
H            3.61430340889154       -1.65215721155850        0.16463840032330
H           -1.78257438101252        2.95352204221676       -0.29903788057659
H           -3.24182100296226        1.69299384563415       -0.28396221646710
H           -2.95081983558931        4.44084301812876        1.45771253744271
H           -1.05973944377908       -3.32060081018291        0.72274477284717
H           -1.01740560669881       -3.29330021428738       -1.06510845377764
H           -2.46295899925924       -2.73452255613286       -0.19636035516938
H            1.44550237171328       -2.99171869018888        0.04023569957477
25
 energy: 87.148291940717 xtb: 6.6.1 (8d0f1dd)
C            3.23079361643583        1.15601468525002        0.12774788233288
N            2.30930253591670        0.06014018106743        0.06653131373441
C            2.62341869059271       -1.25400862854802        0.10640154213552
N            1.48967704618261       -1.98332475768363        0.03711730706393
C            0.43396435646562       -1.14490583333422       -0.04970559104358
C            0.92246197837058        0.16604074899525       -0.03516169227924
C            0.09458690516229        1.29805663618184       -0.12133545341719
O            0.45334278262887        2.47991105766686       -0.12187659506322
N           -1.29870507664470        0.95222590836184       -0.19553800803285
C           -2.21028284869941        1.94947434367989       -0.22526304662896
C           -1.79481756146118       -0.36325005283525       -0.22644864698571
O           -2.98489251251910       -0.58764414004030       -0.31471721344375
N           -0.88919879543136       -1.41786331121692       -0.14256462900022
C           -1.37519694518433       -2.77903797329516       -0.16897514018967
H            3.71307449200884        1.20014222184884        1.10609539286352
H            3.99908296044839        1.05243113533412       -0.64030706620075
H            2.66851265275036        2.07694672804288       -0.03437822736007
H            3.61328501716209       -1.64719021247116        0.17544263120493
H           -1.78702545493825        2.95001082436085       -0.25109828040084
H           -3.24335014654427        1.70567329537571       -0.31473196157646
H           -2.97098263085272        4.46121747355385        1.53134254059595
H           -1.05913448461846       -3.31579025842858        0.72776511079543
H           -1.01501544011645       -3.29770831516552       -1.06009491277012
H           -2.46242578129064       -2.73722485143654       -0.19590180581268
H            1.45173894914828       -2.99130811651977        0.04668846167336
25
 energy: 86.810751142261 xtb: 6.6.1 (8d0f1dd)
C            3.23008958052608        1.15468371854131        0.12409120137920
N            2.31064286143989        0.05521289429767        0.06953633630200
C            2.61866142283548       -1.25442153120109        0.10297113269318
N            1.48656796630819       -1.98135591825191        0.04008837777327
C            0.43011524136766       -1.14572387772261       -0.04441830042965
C            0.92300361882998        0.16591773262852       -0.02537862565785
C            0.10490298501594        1.30496572078517       -0.11738744622161
O            0.44430241536238        2.48482028421157       -0.12269370393176
N           -1.29502510290473        0.95497827570179       -0.20152430456845
C           -2.19465394423405        1.95936592191405       -0.25201920286534
C           -1.79923791302719       -0.35923157343207       -0.22596891292601
O           -2.98880545817595       -0.57930559500304       -0.32352411124227
N           -0.89235639196803       -1.41088262515503       -0.13908392567402
C           -1.37749212906035       -2.77510229052367       -0.16588620878325
H            3.71346611958528        1.20081171038709        1.10197851657525
H            3.99713729964203        1.04983289695052       -0.64438642972605
H            2.66854636785289        2.07603753173515       -0.03858949411326
H            3.61135837403110       -1.64376557670468        0.18020259885863
H           -1.79244385190834        2.94896279780539       -0.24253193133049
H           -3.23519046077280        1.72329336115668       -0.36525467569186
H           -2.96745965452369        4.38988388897935        1.59204884175252
H           -1.05907816022906       -3.31152751288410        0.72993517181822
H           -1.01579766513706       -3.29176201808474       -1.05745242122484
H           -2.46482530765588       -2.73574343288807       -0.19258989694258
H            1.45578609177257       -2.99091599449893        0.04487132637161
25