25
 energy: -42.443279046064 xtb: 6.6.1 (8d0f1dd)
C            3.28835945339475        1.27452882174530        0.09678907961506
N            2.37110454901086        0.16582323492658        0.07902975252730
C            2.68145653967709       -1.13199749986555        0.10317853173087
N            1.55506989800975       -1.88387838445750        0.10378094148908
C            0.45785667212706       -1.03974625570701        0.08159606860448
C            0.99047243271022        0.27497263309266        0.06771757401752
C            0.18538352575592        1.42821548755527       -0.00128343768747
O            0.58187400825537        2.59681444097312       -0.02920416250871
N           -1.17139054746083        1.08306917143006       -0.04197111080126
C           -2.12263812225336        2.17316745617042       -0.14658476615197
C           -1.72135892605693       -0.17055298905338       -0.04464820784441
O           -2.91527189235905       -0.32987678886304       -0.14912208503151
N           -0.86322553106056       -1.31352300761505        0.05841828606231
C           -1.52287361018494       -2.52898579802220       -0.04208399642415
H            3.91910221294488        1.23722824204070        0.98346342969046
H            3.92522788965594        1.25825627213333       -0.78691481846345
H            2.71793393505088        2.20541547269804        0.10207024087937
H            3.67921712154153       -1.51426232479170        0.13999599816828
H           -1.53788031174705        3.08917155930608       -0.13427353881040
H           -2.69583656461054        2.10390934328386       -1.07030042456102
H           -2.81244256684459        2.15124878993305        0.69432446082561
H           -0.89481844139325       -3.39332089096716       -0.20564261147765
H           -2.44642049714436       -2.42149000098999       -0.62537589096359
H           -3.30464253761152       -4.38059121662361        0.18372022029333
H            1.55043338809163       -2.89156912391133        0.12352120777082
