72
 energy: -99.173132979709 gnorm: 1.334992953533 xtb: 6.6.1 (8d0f1dd)
N           -1.68697237496607        3.15044772311754        2.03600643442600
C           -2.30322905684991        2.28313638978526        1.46783058290260
C           -3.18617625771197        1.99934170897600        0.36497451410330
C           -3.64819925826302        0.54835230890157        0.40751086895081
C           -4.49986359958094        0.04674206780476       -0.57495176136418
C           -4.91435060767213       -1.27532496452831       -0.55420028576786
O           -5.73765328861171       -1.84863205875978       -1.45386187762129
C           -6.28716195694232       -1.06542959243433       -2.48735539568677
C           -4.45695578682062       -2.13746785070081        0.48010515476349
O           -4.90325331354121       -3.40637901191351        0.41510314720766
C           -4.52557672259647       -4.31690248579289        1.42165789128456
C           -3.61086765098540       -1.62667277588689        1.45164062104166
C           -3.21487176085361       -0.29812688552295        1.41379007095594
C           -2.40461008932769        2.27481163916507       -0.95447315602141
C           -1.44174339243081        1.15652127062537       -1.34567474217902
C           -0.39010177898430        0.87743583621702       -0.23772110397024
N            0.58827215716988       -0.09706686262047       -0.76527507187495
C            1.95774458308905        0.05611910623727       -0.33000687154387
C            2.94320074932629       -0.36035363023654       -1.43749478512539
C            4.35794311819154       -0.15265437574342       -0.98461002296488
C            4.99575014352390        1.06533722247690       -1.17375785123356
C            6.29731190497820        1.26170689899869       -0.74189636602120
C            6.99366554639688        0.24326147124776       -0.10403364082721
O            8.26144989759296        0.32034846654334        0.34222178150624
C            8.99795962682325        1.50063122982751        0.11992408753939
C            6.34483622491487       -1.00506450348969        0.10841576849337
O            7.08401290229574       -1.93940941003509        0.73864874812661
C            6.53946069089899       -3.22016470982724        0.95123261060821
C            5.04164755113379       -1.17635691058291       -0.33463948770640
C            0.09074796999401       -1.45159824878997       -0.70253105691463
C           -4.43464390354687        2.94422839321610        0.49524079068693
C           -5.16352487944761        2.68245181554279        1.81086976658901
C           -4.08557917458242        4.42163912391289        0.36421581014766
H           -4.84030825592265        0.69476070170897       -1.36600760461973
H           -6.87881599174849       -0.23479951502434       -2.09056931399244
H           -6.93834965060708       -1.73543451827520       -3.04522481376541
H           -5.51096187043331       -0.67858365526693       -3.15533532078465
H           -4.86020001778648       -3.98438970690502        2.40880604452271
H           -5.02013809675198       -5.25277264149507        1.16978785120278
H           -3.44221403843937       -4.47223472248195        1.43529836586797
H           -3.25510752804951       -2.25546654883476        2.25127879636815
H           -2.56293332475716        0.08293033224922        2.18875260498388
H           -3.13639035813097        2.40027301921261       -1.75298685347479
H           -1.85567252770335        3.21091981798023       -0.84949189145307
H           -2.00520708808867        0.24254807781660       -1.53271736206533
H           -0.93332997384863        1.43328307290850       -2.26867145508142
H           -0.70256624515302        0.65069641969410        0.35925389336321
H            0.16894073584273        1.82477132497619       -0.12091165372232
H            2.16472769164910       -0.53363523967083        0.57668536049510
H            2.14040407165848        1.10656050532176       -0.09499640583593
H            2.73605141270459        0.24194737268980       -2.32202803869919
H            2.78782131301745       -1.40801264145613       -1.69427860644188
H            4.47961734235578        1.86994902425666       -1.67453249242984
H            6.76798697249366        2.21637278607532       -0.91130490165120
H            8.55691988729594        2.35322055961430        0.64545615453857
H            9.07474284455952        1.72922776769827       -0.94725817245495
H            9.99116585683359        1.30550662592575        0.51984296972949
H            7.32110951176933       -3.79203110402011        1.44759477728548
H            5.65649598777503       -3.17896747127949        1.59703294639813
H            6.27926356011570       -3.70666237705027        0.00612259370107
H            4.54474710777315       -2.12254646722731       -0.18782174162889
H           -0.73210735694863       -1.57497299752902       -1.40479576672233
H           -0.26856592121475       -1.71675350356023        0.30167810367332
H            0.87741182283697       -2.14610914841763       -0.98063041968728
H           -5.10132222669484        2.67207689970224       -0.32809178968844
H           -4.55647106304941        2.99480986442060        2.65759253547226
H           -5.40212013845029        1.62740904518101        1.92366096294090
H           -6.09256185389638        3.24583781822510        1.83543233588806
H           -3.34811225836964        4.71853695661870        1.10567288177190
H           -3.70427546113414        4.65946689858206       -0.62466175799285
H           -4.98235994019660        5.01408425567422        0.52697568520989
H           -1.10946754691600        3.10741423873440        2.85975116884891
72
 energy: -99.387196930287 gnorm: 0.048978367760 xtb: 6.6.1 (8d0f1dd)
N           -1.68694997960501        3.15034669962885        2.03604748034043
C           -2.30319235188022        2.28308673247830        1.46784095098754
C           -3.18588417334187        1.99921427087630        0.36491147106200
C           -3.64813953823510        0.54834227022512        0.40750707636307
C           -4.49982896674836        0.04672925698605       -0.57498101179268
C           -4.91432017631892       -1.27532480355662       -0.55419218351791
O           -5.73767045171744       -1.84864137307013       -1.45386883156372
C           -6.28713129291116       -1.06543319950606       -2.48734724118603
C           -4.45694205546034       -2.13747324977899        0.48010766349605
O           -4.90329261817839       -3.40637105013378        0.41510952736708
C           -4.52560677652832       -4.31689943277310        1.42162143652241
C           -3.61089123982510       -1.62666908558179        1.45166548396570
C           -3.21492140187904       -0.29813614272533        1.41383276055201
C           -2.40449547305794        2.27512468631057       -0.95480786766632
C           -1.44259301542363        1.16180881959873       -1.36056625270387
C           -0.33289210479890        0.92048546323037       -0.34799283988663
N            0.60210957609608       -0.09936882207472       -0.78275305436122
C            1.96101369113420        0.05539027969059       -0.33008850529563
C            2.94417302511089       -0.36068173281783       -1.43767579904766
C            4.35825683700679       -0.15266085822001       -0.98464038275401
C            4.99581270308607        1.06534430979291       -1.17377743055905
C            6.29736729941022        1.26175276008909       -0.74191956548641
C            6.99363294485322        0.24334138008673       -0.10404869071101
O            8.26142536811375        0.32027100157553        0.34217199294381
C            8.99794636271419        1.50061447441247        0.11996026646462
C            6.34477622779191       -1.00510948478341        0.10842707215207
O            7.08408596285929       -1.93936865935803        0.73855413508776
C            6.53950038524815       -3.22012442338787        0.95123859318088
C            5.04171753464615       -1.17643676418651       -0.33459248999573
C            0.09110545058766       -1.45024217552712       -0.70305971728946
C           -4.43460861778658        2.94420390766195        0.49524848801422
C           -5.16349807840972        2.68244962096437        1.81085340758064
C           -4.08558179410212        4.42162287935846        0.36419545500815
H           -4.84025504039684        0.69475858293255       -1.36602284461330
H           -6.87881652666500       -0.23480114050966       -2.09055706269507
H           -6.93831425172779       -1.73541971948825       -3.04525247754095
H           -5.51093518042527       -0.67854735798815       -3.15532415702262
H           -4.86024055015064       -3.98442887446427        2.40881376790179
H           -5.02016744279751       -5.25278879770282        1.16975623482476
H           -3.44222693906713       -4.47225793288305        1.43530024697400
H           -3.25515217987666       -2.25548640900332        2.25129968669371
H           -2.56298651089955        0.08292843057783        2.18881382319787
H           -3.13682213133059        2.40051453776454       -1.75268965082854
H           -1.85572621860694        3.21112616131967       -0.84967726445929
H           -2.00399434418860        0.24256800462879       -1.53273580820213
H           -0.93479780500089        1.43519298638669       -2.27568633811084
H           -0.79396643007452        0.58438116151153        0.52661952196044
H            0.18556308447843        1.84182593382518       -0.13796534674259
H            2.16433644134100       -0.53369384049931        0.57722824410817
H            2.14064945520833        1.10652483921391       -0.09535910588404
H            2.73614678692043        0.24195516144832       -2.32197683338345
H            2.78789498741301       -1.40812778740905       -1.69434234590785
H            4.47956462098432        1.86991192684682       -1.67456817432703
H            6.76799455809230        2.21639763757761       -0.91135648705285
H            8.55687688931170        2.35321215514915        0.64544905565886
H            9.07479544849797        1.72920972900297       -0.94722294034063
H            9.99113389202313        1.30548081443072        0.51991706828953
H            7.32116116443701       -3.79198557585811        1.44759114617900
H            5.65653826319584       -3.17893927017838        1.59703717129614
H            6.27928869981931       -3.70667227637646        0.00614984105401
H            4.54471050977682       -2.12255737680819       -0.18784414099680
H           -0.73208880467555       -1.57488893338354       -1.40481615342133
H           -0.26841251170088       -1.71551064620532        0.30176035493361
H            0.87694195520575       -2.14667324193102       -0.98032871924873
H           -5.10130769791788        2.67203725551740       -0.32807480417221
H           -4.55646803918460        2.99479733376344        2.65760103803424
H           -5.40213971007696        1.62741172869136        1.92366635364018
H           -6.09254660988910        3.24585737279995        1.83542773035501
H           -3.34814251041097        4.71854012810589        1.10568165667744
H           -3.70423257822645        4.65942978425701       -0.62466635755806
H           -4.98236185675404        5.01407206972037        0.52690363291612
H           -1.10946255210745        3.10759741223552        2.85973388312274
72
 energy: -99.389489196653 gnorm: 0.037384416447 xtb: 6.6.1 (8d0f1dd)
N           -1.68405061324046        3.14897043481882        2.03402780346155
C           -2.29795691861677        2.28054744096049        1.46488174142029
C           -3.18170090416346        1.99710111855503        0.36271983641201
C           -3.64598979993359        0.54692695207663        0.40673871532231
C           -4.49745557947921        0.04550960577882       -0.57601364023143
C           -4.91350536269940       -1.27605303182665       -0.55458825369150
O           -5.73723409684251       -1.84900848154416       -1.45424464267363
C           -6.28645397187860       -1.06535349347647       -2.48742454567274
C           -4.45739464806966       -2.13822622076005        0.48023147435347
O           -4.90418157437047       -3.40695406745500        0.41514319861973
C           -4.52695108594284       -4.31750305879428        1.42183120528868
C           -3.61292260830798       -1.62748660367604        1.45309295543368
C           -3.21714676275548       -0.29889960664300        1.41577127391430
C           -2.40191528227353        2.27550350401289       -0.95774316010456
C           -1.43872987032131        1.16457749735803       -1.36892048898688
C           -0.34872836857574        0.90943585886143       -0.32565632610106
N            0.59584731594305       -0.09361257974649       -0.77652382398480
C            1.96163069760773        0.05465701089579       -0.33276824241180
C            2.94812535360557       -0.36004088293384       -1.43986179138636
C            4.36237208136883       -0.15357797877987       -0.98783732296433
C            4.99884803160426        1.06487322484888       -1.17603202889216
C            6.29975262606368        1.26192659615910       -0.74301583288694
C            6.99535069185505        0.24349980949493       -0.10464938590736
O            8.26274132007915        0.32003737499019        0.34239765482392
C            8.99898616771106        1.50052271424477        0.12087401891401
C            6.34675444965973       -1.00516652434156        0.10767976068552
O            7.08622135800184       -1.93898003318602        0.73806362378366
C            6.54142856936469       -3.21950068175583        0.95185705806857
C            5.04442306214221       -1.17723197274094       -0.33636775789058
C            0.08835631549364       -1.44304412403624       -0.70386752098898
C           -4.43107715908322        2.94224351228229        0.49398853606651
C           -5.16096555231033        2.68176808037871        1.80948063263620
C           -4.08408934210300        4.42021585217786        0.36272291415045
H           -4.83702692061475        0.69363793794792       -1.36729363947157
H           -6.87841935230762       -0.23510305886539       -2.09027441271760
H           -6.93733143500492       -1.73514325470793       -3.04587987780024
H           -5.51013170551841       -0.67790124839060       -3.15490564799191
H           -4.86193989134233       -3.98518454560390        2.40902584217914
H           -5.02140625305831       -5.25342915933600        1.16973632897725
H           -3.44352479544771       -4.47290470184548        1.43594945160456
H           -3.25884182875342       -2.25608873435862        2.25371336138809
H           -2.57030553536804        0.08290179792145        2.19483635330251
H           -3.13820110895856        2.40265569886647       -1.75188216536201
H           -1.85482382560029        3.21242611161965       -0.85091061981265
H           -2.00006826984886        0.24564415811092       -1.53520543790951
H           -0.96411083019680        1.44534948760472       -2.30942898294296
H           -0.81544491190631        0.57152326984969        0.56148930059551
H            0.18061050428550        1.83866982385771       -0.12537125750563
H            2.16389948794116       -0.53997578485920        0.57134936188087
H            2.14704793502378        1.10284725096055       -0.09038861169933
H            2.74006421873359        0.24392600788592       -2.32312998245385
H            2.79064071181300       -1.40709153247735       -1.69785598378617
H            4.48192013558716        1.86909166239546       -1.67679992970824
H            6.77025614467372        2.21652185212392       -0.91253773570849
H            8.55671927366410        2.35302873577524        0.64538966662317
H            9.07717073761894        1.72869480550696       -0.94623540842777
H            9.99151065982229        1.30564132448826        0.52232948659532
H            7.32327794994834       -3.79110789946397        1.44835193610071
H            5.65861004265579       -3.17764922329026        1.59791737937212
H            6.28072133304491       -3.70673783420223        0.00719197873659
H            4.54664999141913       -2.12302369364888       -0.18955292252963
H           -0.74178482523305       -1.56596840035259       -1.39760518578026
H           -0.26216356137625       -1.70262246867957        0.30584603382093
H            0.87225554518574       -2.13984928625299       -0.98750066093110
H           -5.09817962057517        2.66983294150834       -0.32895192302776
H           -4.55447784673528        2.99419253946872        2.65659059447176
H           -5.40090342095977        1.62709356504773        1.92290740547109
H           -6.08964051372369        3.24599950477977        1.83329635256271
H           -3.34780902795154        4.71840547855041        1.10482237838942
H           -3.70226663772643        4.65819364537239       -0.62588894634867
H           -4.98177193133837        5.01170415126583        0.52434274897645
H           -1.10665356440032        3.10826135173202        2.85779057486783
72
 energy: -99.390397732294 gnorm: 0.024381710426 xtb: 6.6.1 (8d0f1dd)
N           -1.68372713542899        3.14844092021458        2.03284142100704
C           -2.29427129531043        2.27872522222558        1.46229452363116
C           -3.18055805996769        1.99588889856836        0.36198667137180
C           -3.64497925142117        0.54583260374293        0.40625177597245
C           -4.49403408971690        0.04370808473587       -0.57815740374663
C           -4.91211678726583       -1.27720804865893       -0.55571809092702
O           -5.73603976281121       -1.84965540222131       -1.45556364377113
C           -6.28502956158134       -1.06512162980366       -2.48814521649944
C           -4.45844742337762       -2.13916455156086        0.48028508700620
O           -4.90535116352821       -3.40781710529473        0.41466901135674
C           -4.52916882992834       -4.31861393080851        1.42149739017617
C           -3.61735416624785       -1.62776857762084        1.45566799711776
C           -3.22219263270563       -0.29895659626036        1.41909815520274
C           -2.40416830566688        2.27728028323094       -0.95952453028687
C           -1.44178347398086        1.16384544106534       -1.36797210275995
C           -0.35676346886605        0.90368040126453       -0.31477462327541
N            0.59303617981979       -0.08895720083433       -0.77511540734018
C            1.96297718752955        0.05461768746476       -0.33518727122225
C            2.94977795935627       -0.35916544310996       -1.44349264701219
C            4.36382816529743       -0.15343472118365       -0.98969399397021
C            5.00082722524617        1.06472145840097       -1.17846597617501
C            6.30181851816728        1.26195130566500       -0.74532928377862
C            6.99669988379584        0.24347138745469       -0.10639679472772
O            8.26362901348130        0.31949929717729        0.34203377417097
C            9.00013517180335        1.50021016768724        0.12249317967616
C            6.34808290080183       -1.00531482511966        0.10577501497640
O            7.08837639366438       -1.93834104387639        0.73632600396878
C            6.54397738587386       -3.21859270145303        0.95238524755749
C            5.04567197450124       -1.17749454949188       -0.33814742556668
C            0.08790507532126       -1.43787225992083       -0.70423364473618
C           -4.42965032410341        2.94122557409634        0.49340580306420
C           -5.15878358065231        2.68084416341881        1.80914661759299
C           -4.08236974428008        4.41898856772751        0.36110616092103
H           -4.83124087217118        0.69141463801590       -1.37076693634225
H           -6.87745102368338       -0.23548634591363       -2.09027815040442
H           -6.93544996180368       -1.73452962345275       -3.04760358442055
H           -5.50858943895955       -0.67657061699451       -3.15485912299578
H           -4.86524862901021       -3.98677521551786        2.40848955612384
H           -5.02333052983934       -5.25446470587127        1.16855111409521
H           -3.44573559861660       -4.47395967076818        1.43674327243612
H           -3.26591463835592       -2.25584414130945        2.25788534315471
H           -2.58203967434587        0.08366624173786        2.20349501432088
H           -3.14124029976060        2.40774519212260       -1.75259679303796
H           -1.85531426977307        3.21293548817450       -0.85020115743346
H           -2.00202182102529        0.24500340212895       -1.53702694526742
H           -0.97301540987059        1.44663424654263       -2.31399029236240
H           -0.82755952630817        0.56807758209602        0.59286638073469
H            0.17981916327072        1.83820755999132       -0.12873970141774
H            2.16287870100317       -0.54514665369988        0.56646502919701
H            2.15189933755001        1.10097139008440       -0.08753373959431
H            2.74311089082503        0.24611013845948       -2.32623030652558
H            2.79257867957747       -1.40604529260948       -1.70299518183352
H            4.48389281502472        1.86841253707281       -1.68001953558186
H            6.77238280190342        2.21662354414142       -0.91466930862465
H            8.55607999400435        2.35262910610762        0.64570435236025
H            9.08110909549112        1.72829169608037       -0.94445982481933
H            9.99165149563317        1.30566330490639        0.52667902601887
H            7.32633192577476       -3.78925924980364        1.44907499195837
H            5.66169366823958       -3.17586306251800        1.59903232033477
H            6.28264849407667       -3.70724050457554        0.00867427229578
H            4.54760692264409       -2.12311506869420       -0.19163290246895
H           -0.75117832961270       -1.55860344944911       -1.38728368866929
H           -0.25271579259478       -1.69474197718346        0.30995898955461
H            0.86602570390854       -2.13741580528009       -0.99680190078032
H           -5.09656677849378        2.66780550100172       -0.32933809005537
H           -4.55195856639819        2.99306019816283        2.65608098287303
H           -5.39971365145468        1.62640464277045        1.92273225491886
H           -6.08692163329125        3.24598052498938        1.83256798048418
H           -3.34735980891973        4.71795840755711        1.10415433313835
H           -3.69912351130138        4.65639916924742       -0.62709120007019
H           -4.98066385652815        5.01006518015638        0.52076467740775
H           -1.10279444762372        3.10968833767494        2.85411753490395
72
 energy: -99.390840280897 gnorm: 0.011962446328 xtb: 6.6.1 (8d0f1dd)
N           -1.68542034258518        3.14825498391951        2.03303414428836
C           -2.29202603868955        2.27711642829499        1.46069598116348
C           -3.18136227470252        1.99500100751267        0.36262925604934
C           -3.64647172758815        0.54533092618163        0.40749022930021
C           -4.49122831541422        0.04199024040506       -0.57998452299380
C           -4.91082842206220       -1.27842595043528       -0.55713153497821
O           -5.73390895885278       -1.85049603480155       -1.45803768394036
C           -6.28277215113601       -1.06489438971957       -2.48985046702450
C           -4.46040673484911       -2.13995631212509        0.48058399087482
O           -4.90664815608283       -3.40876726571224        0.41369256490826
C           -4.53205147807791       -4.31999395218930        1.42068855557752
C           -3.62413449942198       -1.62732861775120        1.45953445472633
C           -3.23008167929763       -0.29811982125873        1.42424619929470
C           -2.40543423540265        2.27580957060816       -0.95891227685710
C           -1.44400275786619        1.16097733621937       -1.36551729726524
C           -0.35512148737284        0.90529679713574       -0.31459036140684
N            0.59236281013219       -0.08640841246055       -0.77729024781233
C            1.96352175052026        0.05431669897886       -0.33656034102163
C            2.94965689358737       -0.35811778681039       -1.44597421121228
C            4.36416740496945       -0.15301466444457       -0.99156758863453
C            5.00212815262878        1.06462265727655       -1.18126105628883
C            6.30326448810639        1.26198073137358       -0.74815366793785
C            6.99754314936445        0.24358731518082       -0.10861162513624
O            8.26405306491907        0.31904255202383        0.34120819515160
C            9.00108261944977        1.49998875273015        0.12443435180108
C            6.34877272938495       -1.00524276123933        0.10333931870200
O            7.09008175473241       -1.93748087990594        0.73384181645191
C            6.54647115239615       -3.21754508402444        0.95259692317506
C            5.04617972337542       -1.17740935754305       -0.34026515188792
C            0.08733263158854       -1.43529860924862       -0.70408951670354
C           -4.42993891823407        2.94050119171398        0.49436128561011
C           -5.15837239471814        2.68098416124181        1.81033893359395
C           -4.08172160930191        4.41777677653845        0.36053296597244
H           -4.82419588740014        0.68873687119242       -1.37519953051482
H           -6.87582085528194       -0.23613042770131       -2.09095967840783
H           -6.93260207898799       -1.73382546758168       -3.05057732542379
H           -5.50630014135318       -0.67486514188769       -3.15565851147275
H           -4.87011970059222       -3.98900633978161        2.40726830374802
H           -5.02544480971068       -5.25584133106899        1.16623327638305
H           -3.44859543516726       -4.47491476945406        1.43785601485466
H           -3.27596469953098       -2.25469837405724        2.26371159165543
H           -2.59565792572652        0.08509072830998        2.21305289797596
H           -3.14187208079723        2.40829928443744       -1.75214073122167
H           -1.85457470083927        3.21023670265122       -0.84941946602652
H           -2.00446047497950        0.24243551411022       -1.53651115893712
H           -0.97016555990345        1.44209647978072       -2.30894812660909
H           -0.82816448578705        0.57602702115395        0.61488461699649
H            0.18386680696033        1.84257496531180       -0.14185394971552
H            2.16131075217587       -0.54874011283205        0.56335251034253
H            2.15416110709019        1.09973527409590       -0.08618867534384
H            2.74407423798251        0.24841108883951       -2.32813313287163
H            2.79288926286489       -1.40467324367849       -1.70714081808154
H            4.48540712663986        1.86801074227460       -1.68347395711415
H            6.77410935762584        2.21649480393090       -0.91787000310895
H            8.55499160387812        2.35223456759709        0.64623703514166
H            9.08577938451861        1.72822425975975       -0.94223015927091
H            9.99127262469743        1.30566009057561        0.53210495463128
H            7.32957024302140       -3.78692733337507        1.44954656574432
H            5.66484508352352       -3.17394843900921        1.59998789193342
H            6.28452540186498       -3.70797976049416        0.01004026923513
H            4.54804135164761       -2.12295724247839       -0.19376051101795
H           -0.76104277679144       -1.55331356210235       -1.37611169410082
H           -0.24173622103972       -1.69312549775704        0.31411569882405
H            0.85925169700149       -2.13695848630152       -1.00752811803867
H           -5.09678883559733        2.66627846494668       -0.32817520929928
H           -4.55033471432024        2.99240742211432        2.65662913145766
H           -5.39983398379185        1.62667838261439        1.92365906878432
H           -6.08598380045160        3.24688490239006        1.83442026975104
H           -3.34774807722100        4.71725960213431        1.10437625503310
H           -3.69663551879424        4.65371971771237       -0.62729101711392
H           -4.98007896072283        5.00936994249888        0.51772177570203
H           -1.09814486320080        3.11109999596657        2.84978687253713
72
 energy: -99.391037409933 gnorm: 0.005327600330 xtb: 6.6.1 (8d0f1dd)
N           -1.68923192908777        3.14793604882472        2.03515478809516
C           -2.28924052481186        2.27456976877736        1.45945289013154
C           -3.18286495491669        1.99343859073590        0.36446884990104
C           -3.64942430676255        0.54441972257012        0.41010453576841
C           -4.48834842427855        0.03984306268306       -0.58176802420805
C           -4.90958449960076       -1.28001253865423       -0.55903049755352
O           -5.73005799136279       -1.85185441755968       -1.46254269684203
C           -6.27865081660249       -1.06482976481514       -2.49341520639108
C           -4.46435475011609       -2.14076271698610        0.48156390170563
O           -4.90889860475511       -3.41001416830558        0.41220654270732
C           -4.53674439483511       -4.32189144037860        1.41949487763966
C           -3.63507063164940       -1.62645280174867        1.46573709180207
C           -3.24133242363272       -0.29708881668396        1.43173963796257
C           -2.40677945586222        2.27278522591623       -0.95705199333467
C           -1.44555502297713        1.15798339246804       -1.36235710687331
C           -0.34675579076392        0.91190082443220       -0.32200135198388
N            0.59362527548050       -0.08526749648311       -0.78105484913165
C            1.96431340428110        0.05282548570232       -0.33687382163527
C            2.94919099774978       -0.35723844244812       -1.44763558151466