25
 energy: -43.826518349810 gnorm: 0.139504833372 xtb: 6.6.1 (8d0f1dd)
C            3.22871817447402        1.23591851767917        0.05370303542312
N            2.32463087600260        0.11127413576027        0.01648656847902
C            2.72382021069712       -1.25956073202349        0.00310694889820
N            1.46449203991763       -1.97388067067315        0.01244865365042
C            0.42194295768489       -1.08021438463565       -0.00816663020899
C            0.93124394200098        0.19585671368293       -0.01717735155448
C            0.11162636578494        1.36117188014147        0.00003481520648
O            0.51434683456520        2.52717301046135        0.01799738635709
N           -1.27182751207550        1.03122344994923       -0.02116654845438
C           -2.21823789094593        2.14591170507147       -0.03699355829262
C           -1.83483624771336       -0.21594213561815       -0.04617392370067
O           -3.02402937567523       -0.38564792480850       -0.07153905115051
N           -0.94805715426430       -1.31533805953591       -0.03470063161185
C           -1.48822498986122       -2.64181785345848       -0.06311375092530
H            3.61785597267506        1.31797465871640        1.09378087903803
H            4.13174230750625        0.96883110147746       -0.57420243466988
H            2.69563763392169        2.10776011650532       -0.18461411101882
H            3.65406762347652       -1.65030003463942        0.01068715237746
H           -1.65799222282449        3.08043362928416       -0.01294191378091
H           -2.82631656786940        2.10412712198981       -0.94021288936783
H           -2.87771478372535        2.07689110997276        0.83003128575043
H           -1.20487990116576       -3.20030492000536        0.82661380574358
H           -1.16994801103430       -3.17436798711282       -0.96065644166182
H           -2.57575306643307       -2.53891988805252       -0.07979054111960
H            1.33315716432962       -2.95638894573672        0.00242007843409
25
 energy: -43.835727533971 gnorm: 0.039493235963 xtb: 6.6.1 (8d0f1dd)
C            3.24142434288797        1.20980831612805        0.07198064495282
N            2.31999909065329        0.10803062666265        0.01398227062756
C            2.66692098946354       -1.25168074679979        0.00515692071801
N            1.44679877132589       -1.96110003349351        0.00751186697991
C            0.42033948714632       -1.07421379873140       -0.01182256120296
C            0.93386811885520        0.20508388187724       -0.01360951250027
C            0.11441629327769        1.36703400000777       -0.00235693011200
O            0.49934879772447        2.53685699271874        0.01412905864878
N           -1.26518544313301        1.03379843965647       -0.02245244624242
C           -2.21491646316074        2.13970722158261       -0.03647198470773
C           -1.81991882030930       -0.21470039631847       -0.04485300894885
O           -3.01732430439672       -0.39569827056300       -0.07091691873791
N           -0.93254380371027       -1.31012214945561       -0.03502149837736
C           -1.48118608823102       -2.64126401743342       -0.06300927929154
H            3.62905857882458        1.32271209001573        1.09908886102106
H            4.10617386194733        0.99282871243631       -0.57957840466341
H            2.71170498773707        2.10498200128407       -0.19874042951067
H            3.63190270838633       -1.66457603464517        0.01745808249037
H           -1.64514231991516        3.06656191422849       -0.01070483009014
H           -2.82302441304986        2.09834484596521       -0.94025371478055
H           -2.87348595605633        2.07444906470511        0.83016401976580
H           -1.19616098494647       -3.20347391723641        0.82762578714668
H           -1.16358834635704       -3.17743292078714       -0.95995956228607
H           -2.56796904698547       -2.53754381011639       -0.08040532732007
H            1.33395434147032       -2.95652839729651       -0.00108027173881
25
 energy: -43.836092048140 gnorm: 0.020603738404 xtb: 6.6.1 (8d0f1dd)
C            3.24173428939901        1.19997090178819        0.06965403669727
N            2.32809480636098        0.10079499888071        0.00158898128066
C            2.66509022215073       -1.24709272179548       -0.00095814066295
N            1.46322927702641       -1.95675015921416        0.01145722069285
C            0.42657552859858       -1.08495902282956       -0.00895300326392
C            0.94030486777429        0.19816865964329       -0.01110320884799
C            0.12222714428506        1.35733671449882        0.00149295209190
O            0.51055591657293        2.52695413625850        0.01936488206988
N           -1.26441421437884        1.03540157705988       -0.02140052726636
C           -2.21695406468888        2.14198242113675       -0.03674223660283
C           -1.81573120031453       -0.21197454086441       -0.04461416767079
O           -3.01797586032609       -0.39306857698339       -0.07302092076153
N           -0.92750354010840       -1.31178449800259       -0.03166777043438
C           -1.49472719354177       -2.63977336826161       -0.06283856747384
H            3.60314139563790        1.31932855286511        1.09625663428383
H            4.11090946723283        0.99256647032002       -0.56387374009059
H            2.69959339716281        2.10448223671388       -0.20480784863908
H            3.65448821868011       -1.65014585269037        0.00346549005759
H           -1.66097498248443        3.07766334894341       -0.01157938000989
H           -2.82742639462081        2.10248360850886       -0.93930604950972
H           -2.87933382047665        2.07688134657905        0.82679148163749
H           -1.21484639812444       -3.20390132134747        0.82882378782749
H           -1.17896500763984       -3.17548771498062       -0.96082157250457
H           -2.58053488312283       -2.52817758143157       -0.08100961851682
H            1.36890740839450       -2.95903600040362        0.00966211745651
25
 energy: -43.836633226759 gnorm: 0.011487387297 xtb: 6.6.1 (8d0f1dd)
C            3.24586569452133        1.19897037036182        0.06920403977249
N            2.32810722179851        0.10127400830660        0.00623946623583
C            2.65835512042925       -1.25057639474552        0.01013507836175
N            1.45397540954577       -1.95364376970471        0.00784607311714
C            0.42007541218472       -1.08020497415542       -0.00964558617727
C            0.93684533367880        0.20352229869199       -0.00872799750345
C            0.11765653274146        1.36007619756695       -0.00232450514220
O            0.50285754069777        2.53257558371149        0.01449685894659
N           -1.27111491708405        1.03522158243409       -0.02321048228790
C           -2.21761808264334        2.14399116547283       -0.03649755620616
C           -1.82332009098182       -0.21053148298151       -0.04544393040386
O           -3.02509442015839       -0.39194048413781       -0.07127301187435
N           -0.93320949779030       -1.30954004359696       -0.03377842813580
C           -1.48593876714982       -2.64336006346694       -0.06397367775153
H            3.62381457899029        1.31625844131108        1.09006293761927
H            4.10741146849203        0.98479783449902       -0.57732635663041
H            2.70414102246607        2.10811835840573       -0.19141813392412
H            3.64573023609709       -1.65528143504401        0.01864121396304
H           -1.65249439475832        3.07469881667011       -0.01243355312784
H           -2.82764910066119        2.10516927383380       -0.93946343384463
H           -2.87642593300589        2.07932384799293        0.83005859913080
H           -1.19439048268628       -3.20173326970137        0.82733605362405
H           -1.16126164303821       -3.17518891022322       -0.96104440504911
H           -2.57204056282179       -2.54547560525770       -0.08017757466358
H            1.35118670058493       -2.95465773185162       -0.00142085620849
25
 energy: -43.836658254697 gnorm: 0.009147543077 xtb: 6.6.1 (8d0f1dd)
C            3.24406966655102        1.20581878244511        0.07234116002292
N            2.32957126097932        0.10248755346051        0.00750652174839
C            2.65924547858614       -1.25410010425634        0.00548767846064
N            1.45178065235726       -1.95623159393199        0.00776220729557
C            0.42085873850666       -1.07955072654058       -0.01108297578272
C            0.93740817248440        0.20538511534212       -0.01082311797892
C            0.12005434036778        1.36153767466210       -0.00256182537756
O            0.50256736866911        2.53577216289598        0.01538925625472
N           -1.26821256164820        1.03204474665262       -0.02252686205859
C           -2.21399318468992        2.13834888394734       -0.03652117395567
C           -1.81983534747634       -0.21256333359284       -0.04545041758191
O           -3.01931973137630       -0.39598923789751       -0.07102238905509
N           -0.93167414093686       -1.31063282199637       -0.03410187689846
C           -1.48772970441501       -2.64192744560201       -0.06273207497193
H            3.61916510675516        1.32970467270602        1.09760899884391
H            4.11085969071523        0.99560871084120       -0.57266582379071
H            2.70267840351949        2.10847035371674       -0.19719344822062
H            3.64062116158993       -1.66007974467255        0.00773443902615
H           -1.64454328205852        3.06615356479898       -0.01056548080535
H           -2.82050448165953        2.09630815133868       -0.94164736078848
H           -2.87311910973072        2.07112583939004        0.82963513414455
H           -1.20337297416717       -3.20244499201459        0.82923877146010
H           -1.16996503312811       -3.17745026430033       -0.95975969248857
H           -2.57208353410922       -2.53023569382886       -0.07964525426821
H            1.34093742376303       -2.95569663917185        0.00145643860606
25
 energy: -43.836805631982 gnorm: 0.003677869918 xtb: 6.6.1 (8d0f1dd)
C            3.24466079883120        1.20195281491795        0.07040370512977
N            2.32881217875802        0.10174267484995        0.00579539697228
C            2.66008495769860       -1.25235842553688        0.00748652580392
N            1.45526698366099       -1.95561483570332        0.00917583164521
C            0.42194119529861       -1.08074794616947       -0.01039886461606
C            0.93677202736126        0.20501088023541       -0.01062962308790
C            0.12024196186679        1.36117009907148       -0.00134016189700
O            0.50357538307480        2.53469953948076        0.01650554686772
N           -1.26938860560803        1.03421794938154       -0.02184849614224
C           -2.21709509592021        2.14136999989932       -0.03623114195742
C           -1.81927733527085       -0.21116797305914       -0.04481146136587
O           -3.01898797404267       -0.39521308476933       -0.07180390514589
N           -0.93086258506031       -1.31049480554847       -0.03346581413930
C           -1.48706357953599       -2.64233005116434       -0.06390325983451
H            3.61877910556743        1.32003771395618        1.09572835944861
H            4.10898213194919        0.98934221047204       -0.57486862641951
H            2.70533094627188        2.10625847483979       -0.19959689399181
H            3.64409147101469       -1.65529049761894        0.01209738894774
H           -1.65323270841566        3.07250529321911       -0.01148555392318
H           -2.82674301630582        2.10116007730470       -0.93934392612408
H           -2.87712948361856        2.07678946755916        0.82932074084263
H           -1.20188389930217       -3.20397861746129        0.82713239171382
H           -1.16764874149765       -3.17600659074723       -0.96139189149994
H           -2.57207326502034       -2.53516751377563       -0.08136907401216
H            1.34831152769342       -2.95602323924174        0.00470363862541
25
 energy: -43.836785734327 gnorm: 0.003912794989 xtb: 6.6.1 (8d0f1dd)
C            3.24265551717263        1.20222249994682        0.07208574964598
N            2.32850497754765        0.10100039698292        0.00601007702213
C            2.65976741977434       -1.25197891021344        0.00687646032476
N            1.45621669532673       -1.95535364296098        0.00550454664708
C            0.42124989953369       -1.08230890032770       -0.01106767829228
C            0.93615200961494        0.20361263263660       -0.01045759042534
C            0.12081896331408        1.35918047308700       -0.00222044626368
O            0.50432781938510        2.53242260693638        0.01478421430163
N           -1.26982316076450        1.03363999978136       -0.02320186516343
C           -2.21504564714098        2.14239471401237       -0.03735469698758
C           -1.82081188605555       -0.21078302594495       -0.04552349857384
O           -3.02124780681479       -0.39385465489207       -0.07154179697295
N           -0.93221802740572       -1.31101535397443       -0.03344825853276
C           -1.48843436429901       -2.64303197539399       -0.06169778937823
H            3.61854470771158        1.31996365899480        1.09558958422326
H            4.10761423152146        0.99263479745436       -0.57275963200039
H            2.70104986858160        2.10724715303379       -0.19337562210213
H            3.64551621323527       -1.65371563106557        0.01091777227139
H           -1.64904672165521        3.07237175806053       -0.01196784295087
H           -2.82414822574852        2.10390205585781       -0.94096273995771
H           -2.87485723392269        2.07789053094963        0.82843513733810
H           -1.20042777554230       -3.20175262039418        0.83025572480581
H           -1.16771778198743       -3.17725220919195       -0.95843336447398
H           -2.57403173200014       -2.53940618845753       -0.07805045523601
H            1.35085642006637       -2.95616655052595       -0.00253515742874
25
 energy: -43.836819195742 gnorm: 0.001763596757 xtb: 6.6.1 (8d0f1dd)
C            3.24426986064694        1.20221035463259        0.07007438844149
N            2.32919562141042        0.10126197218147        0.00626132410824
C            2.65952243687351       -1.25249817520419        0.00839446582112
N            1.45543952552104       -1.95495240015229        0.00881824308917
C            0.42125838743433       -1.08140298179599       -0.00987388861894
C            0.93642845843570        0.20461246088566       -0.00981864713342
C            0.12093021057888        1.35998434741076       -0.00166334074212
O            0.50354094984036        2.53362885606077        0.01556006891803
N           -1.26997781773414        1.03356875947294       -0.02238717662556
C           -2.21612811805347        2.14106253153218       -0.03629085101043
C           -1.82074376954922       -0.21064829991989       -0.04523786930279
O           -3.02097394542285       -0.39429983711030       -0.07160684529783
N           -0.93198480785331       -1.31045711435400       -0.03352001922860
C           -1.48811475005129       -2.64223634157443       -0.06386632503209
H            3.61995122212984        1.32254227535679        1.09370129977824
H            4.10957669259862        0.99015736097486       -0.57388631250188
H            2.70372699319409        2.10702212052909       -0.19746514184728
H            3.64449565088011       -1.65512215722702        0.01195839394530
H           -1.65073951549358        3.07137790189214       -0.01106826377951
H           -2.82499443396243        2.10099040816559       -0.94000219061713
H           -2.87565049171299        2.07522662349826        0.82969147043269
H           -1.20138937672997       -3.20239108509192        0.82757637265801
H           -1.16729423266221       -3.17545434965765       -0.96119938410923
H           -2.57345250607871       -2.53677989922689       -0.08103518321139
H            1.34857213520894       -2.95553971688688        0.00274624370615
25
 energy: -43.836795922018 gnorm: 0.003538755943 xtb: 6.6.1 (8d0f1dd)
C            3.24466958881231        1.20210389645739        0.07209399890228
N            2.32930462900393        0.10154189274813        0.00510318367513
C            2.65988323310157       -1.25297427137575        0.00556175384183
N            1.45525477500391       -1.95530516419313        0.00701681194832
C            0.42203217358522       -1.08069211947536       -0.01175532671875
C            0.93648552495165        0.20580151683560       -0.01179847455721
C            0.12117303321109        1.36154189876655       -0.00185122490717
O            0.50287580361215        2.53560109907429        0.01663067541054
N           -1.26997276673005        1.03416506851974       -0.02218819993602
C           -2.21719910582991        2.14144359002246       -0.03702822670642
C           -1.81930157116816       -0.21076854013140       -0.04481378280670
O           -3.01876668982097       -0.39600936972715       -0.07108812907780
N           -0.93060342328487       -1.31047438886256       -0.03363980509204
C           -1.48611347226669       -2.64251047942567       -0.06245092180341
H            3.61742529200886        1.31811050306522        1.09831848423985
H            4.10926985401646        0.98990529605552       -0.57379614624724
H            2.70541196037212        2.10653896457964       -0.19613926009051
H            3.64351671302494       -1.65603572257302        0.00946466230106
H           -1.65307149814292        3.07247873426156       -0.01312978604435
H           -2.82686382337286        2.10070403697072       -0.94013752597901
H           -2.87736604181902        2.07785905958626        0.82858995516010
H           -1.20051345849873       -3.20372761395886        0.82879033197467
H           -1.16783665118029       -3.17742098568887       -0.95967237836667
H           -2.57094941294615       -2.53437592954501       -0.07891497279051
H            1.34671971380503       -2.95563735759467        0.00269513551025
25
 energy: -43.836819967370 gnorm: 0.001583925452 xtb: 6.6.1 (8d0f1dd)
C            3.24384296479783        1.20248128389667        0.07103180210223
N            2.32911462459134        0.10134968041824        0.00580860267815
C            2.65987016563164       -1.25272372659145        0.00740951293321
N            1.45564478126149       -1.95541201156658        0.00766573752711
C            0.42176841091150       -1.08145185524151       -0.01090644162521
C            0.93627967985756        0.20503930063944       -0.01085826931103
C            0.12141045806436        1.36066916443292       -0.00169247075132
O            0.50335743249903        2.53454927982210        0.01620500709954
N           -1.26991286126714        1.03379149745139       -0.02229843517650
C           -2.21622023458957        2.14163119547369       -0.03656840375092
C           -1.81975672584438       -0.21077213227189       -0.04513638391961
O           -3.01945906466536       -0.39546286864794       -0.07172052939935
N           -0.93115737628787       -1.31083926448836       -0.03360524567148
C           -1.48711322851427       -2.64272217550871       -0.06306114443290
H            3.61817344534460        1.32046057116124        1.09615646580457
H            4.10846056555137        0.99069793023920       -0.57458668699357
H            2.70362726234534        2.10659958894413       -0.19728842130653
H            3.64410978703862       -1.65524190881678        0.01155925991705
H           -1.65121515382783        3.07215115467713       -0.01164137521193
H           -2.82558439537028        2.10206214693891       -0.93994398953111
H           -2.87630106754520        2.07739501861000        0.82906106355651
H           -1.20145185063053       -3.20364341672618        0.82831193941685
H           -1.16775791746641       -3.17706376628582       -0.96022616231985
H           -2.57217192622678       -2.53577708167681       -0.08011486786366
H            1.34790660378958       -2.95590399049141        0.00230026806998
25
 energy: -43.769079734895 gnorm: 0.330159775176 xtb: 6.6.1 (8d0f1dd)
C            3.20687807981555        1.30482876298609        0.02852804408323
N            2.35143970701863        0.14373895476752       -0.00995581888466
C            2.86912474914541       -1.29707177343361       -0.02747123946078
N            1.50016455584598       -2.00677070441918        0.02167154234605
C            0.45049429594577       -1.10538409246955       -0.00765006894120
C            0.94086784684827        0.15932804683142       -0.02146564514217
C            0.12817826992929        1.31688314687322        0.00204652483247
O            0.51482641222359        2.49147887068473        0.02964263064528
N           -1.29361677522817        0.99964420274827       -0.01245334233345
C           -2.21720649934124        2.13744630860112       -0.02366274104059
C           -1.83603848095582       -0.23954838001320       -0.04962656759110
O           -3.04645943608090       -0.39416069751689       -0.07382494600358
N           -0.95555020607422       -1.33916728974295       -0.03018463510805
C           -1.50665164209299       -2.63736450444068       -0.06596365097694
H            3.52299472366472        1.42154377717950        1.11950174322920
H            4.25149009468987        0.90688105973259       -0.46903608562299
H            2.69325671126637        2.11674697384518       -0.27796924995737
H            3.74182418965389       -1.65596380299774       -0.02123628755385
H           -1.64504450803324        3.06797865827340       -0.00005340209711
H           -2.82762888694057        2.11443258243352       -0.92776887702850
H           -2.87880347768079        2.07597903622221        0.84538910055890
H           -1.23879223932901       -3.20542808179096        0.82017000729434
H           -1.19425754727454       -3.17361299156942       -0.96459448034781
H           -2.59592073609700       -2.52109005588243       -0.08364494222840
H            1.29118521647856       -2.97106125306852        0.02850413687870
25
 energy: -43.817742306417 gnorm: 0.084051753017 xtb: 6.6.1 (8d0f1dd)
C            3.23383386145661        1.25107982041506        0.05679425120146
N            2.34478555575338        0.12212090803509       -0.01264000246888
C            2.75296851088787       -1.26754463719027       -0.02459901262283
N            1.48381137620681       -1.99196950539860        0.01613804535927
C            0.44842014432109       -1.10347689821380       -0.00989485943291
C            0.94969175493327        0.17140142988553       -0.02048550817399
C            0.12868276945500        1.32974802973393        0.00040990662703
O            0.50255497947869        2.49734789271303        0.02680534425310
N           -1.27422951899084        1.01148728966771       -0.01388013044387
C           -2.21175360768903        2.13190382632001       -0.02366506381261
C           -1.81561502699755       -0.23547505711709       -0.04512757546792
O           -3.02144541104196       -0.40628328416732       -0.07452264116025
N           -0.92976285338013       -1.32970639562119       -0.02940653439717
C           -1.49926088770713       -2.64133332604331       -0.06593769846705
H            3.52749893850194        1.42607046308320        1.11892007370046
H            4.20403018520162        0.95179227823457       -0.47257867990528
H            2.72049658843721        2.11293938930863       -0.29938326432833
H            3.71551270530586       -1.66268481764656       -0.01448359649866
H           -1.63719536602521        3.05692762914871        0.00263756707716
H           -2.82349148250978        2.10679994655077       -0.92663032359071
H           -2.87276528998240        2.07253588653750        0.84316927916400
H           -1.23339852780627       -3.21402018854587        0.82286042063324
H           -1.19188872290066       -3.18078995695751       -0.96508733226409
H           -2.58714556927325       -2.52048452669057       -0.08498777019582
H            1.31241931176227       -2.97809944220801        0.02446685476426
25
 energy: -43.821001239524 gnorm: 0.024387827322 xtb: 6.6.1 (8d0f1dd)
C            3.24130614964692        1.22598864680887        0.05477196253449
N            2.35342785502064        0.09984868725471       -0.02538571057490
C            2.73033552799247       -1.25670121770586       -0.02688372905311
N            1.50216394466472       -1.96860188320604        0.01455553400613
C            0.45059521089613       -1.10516876536142       -0.00866218403991
C            0.95724798809368        0.17363140563925       -0.01829243637268
C            0.12749284926688        1.32797936894012        0.00281578398760
O            0.50633328446458        2.49636146598033        0.02779707064256
N           -1.27193900951215        1.01405137758314       -0.01437666324418
C           -2.21380150046655        2.13113978568933       -0.02270658630438
C           -1.81840190501028       -0.23323300399187       -0.04552698836558
O           -3.02401066242701       -0.40880141553414       -0.07364940045053
N           -0.92035992302490       -1.32504635749620       -0.02832527287178
C           -1.50414238250456       -2.64067287591934       -0.06615607023381
H            3.50577124461989        1.41286699944436        1.10658312992200
H            4.18490092087872        0.93577520593190       -0.44388537299331
H            2.71523817615617        2.10388293882044       -0.30842625625745
H            3.71999428076412       -1.65099278403078       -0.02036107704074
H           -1.64374417397322        3.05902106198414        0.00362279134237
H           -2.82677243321158        2.10897431423527       -0.92509417068349
H           -2.87641292412758        2.07286447114447        0.84268841002628
H           -1.23686961553006       -3.20955390351754        0.82463012702567
H           -1.19358789788469       -3.17558324047764       -0.96570575546494
H           -2.59055995169749       -2.51399310571777       -0.08514800775676
H            1.35254936430256       -2.96375042266409        0.03001262177006
25
 energy: -43.821149654544 gnorm: 0.018995347468 xtb: 6.6.1 (8d0f1dd)
C            3.24791262985962        1.23166924519196        0.06129988930528
N            2.35979193765004        0.09716217997400       -0.01730432078509
C            2.71547817603068       -1.26726979425678       -0.01378304165529
N            1.49049648670186       -1.97273328274762        0.01189097037577
C            0.44494162139743       -1.10524297944075       -0.00671143768765
C            0.95893887389716        0.17646449001284       -0.01137886150536
C            0.12728291818506        1.32772541659989        0.00151479551839
O            0.50642479506217        2.50004853756649        0.02543271663859
N           -1.27118243292060        1.01174944632388       -0.01588051209832
C           -2.20847176983625        2.13072373507866       -0.02527646256803
C           -1.82208344060448       -0.23298140514579       -0.04585209268972
O           -3.02661062625977       -0.40803562842151       -0.07501899384083
N           -0.92225110602158       -1.32622736031933       -0.02873430576871
C           -1.50258191748032       -2.64710339229865       -0.06684303611784
H            3.53273550452963        1.42421774087927        1.10739154496268
H            4.18466898667573        0.97431233759932       -0.48788854659606
H            2.70580405404919        2.11278417487562       -0.28049939802346
H            3.70705498257815       -1.66642674319381       -0.00933194463449
H           -1.63239225660716        3.05553992175038       -0.00027705648300
H           -2.82049746283704        2.10768358946024       -0.92846599657151
H           -2.86964682804543        2.07452123058959        0.84146549025499
H           -1.23013238225394       -3.21429934920473        0.82313939395700
H           -1.18847797450247       -3.18073660534705       -0.96540941613483
H           -2.58812970940932       -2.52540762039079       -0.08486023888653
H            1.32768135755904       -2.96785113130169        0.02027261058363
25
 energy: -43.821666753531 gnorm: 0.008764074728 xtb: 6.6.1 (8d0f1dd)
C            3.25031036217294        1.23413591494318        0.05988259014055
N            2.35781315737153        0.10300403134571       -0.01954085805721
C            2.72165518677975       -1.26633855961055       -0.02069949766189
N            1.49061078508184       -1.97608416955217        0.01236544249788
C            0.44615775556080       -1.10468582625862       -0.01069496572804
C            0.95677106411518        0.17922493699089       -0.01876290467021
C            0.12608720133961        1.32922264270390       -0.00222655176339
O            0.50323276785073        2.50283332483100        0.02467694987999
N           -1.27241361275909        1.01167786046020       -0.01530373998848
C           -2.21210624247337        2.12919829979136       -0.02194106706081
C           -1.82006903359365       -0.23287021649071       -0.04583420968924
O           -3.02329063015724       -0.41000667800047       -0.07348564169090
N           -0.92131488758221       -1.32657172569456       -0.02988440879877
C           -1.50240982255478       -2.64574702665989       -0.06634004540853
H            3.51510849170300        1.43255218375657        1.11491839457076
H            4.20057981349247        0.95196781936106       -0.45659125857376
H            2.72274864023408        2.11214999578764       -0.30710030470082
H            3.71272232452498       -1.66093067988712       -0.02098039124861
H           -1.63878460473548        3.05565047868102        0.00475514879191
H           -2.82492195060644        2.10546115509297       -0.92461865698589