25
 energy: 0.000000000000 xtb: 6.6.1 (8d0f1dd)
C            3.23720163006194        1.16630919979326        0.08434469647475
N            2.29877817382611        0.07527477071623        0.03981603040599
C            2.58028210190900       -1.21425402444508        0.03006176031096
N            1.43813958087363       -1.93419271955128        0.00098261760884
C            0.39035688448383       -1.05887472636071       -0.00790371836672
C            0.93510056364412        0.21347819449412        0.01709077491437
C            0.09450143893243        1.40504303904423       -0.00410947031874
O            0.49712751527797        2.54126714362870       -0.00342325688240
N           -1.25076640035757        1.06271879480407       -0.03085478223738
C           -2.21907211982101        2.15522099834493       -0.05001256985998
C           -1.81739487048744       -0.20012725993278       -0.04692818574614
O           -2.99983886758376       -0.37846417018721       -0.07008878229737
N           -0.92618586207120       -1.30210215599479       -0.03682761578324
C           -1.46982264913417       -2.64643102187190       -0.06029820460571
H            3.71247264356769        1.21471455160235        1.06488849150277
H            4.00791497605742        1.03430808813993       -0.67357694370751
H            2.69910007168542        2.09770118228144       -0.09130154882931
H            3.56654120610678       -1.63682992603973        0.04233140067262
H           -1.67107961066214        3.09322851271934       -0.02552706933167
H           -2.82428953597071        2.09428624779827       -0.95318082946668
H           -2.87644029173232        2.07745725625962        0.81450067533302
H           -1.17061996399332       -3.19584890659852        0.83242232437030
H           -1.14560257411436       -3.17511610292205       -0.95688275822323
H           -2.55549792440841       -2.55659984320617       -0.07459039797972
H            1.38130855184625       -2.94313852034425       -0.01389874181052
25
 energy: -5.344306637177 xtb: 6.6.1 (8d0f1dd)
C            3.24036606884228        1.18307715450660        0.08130994754827
N            2.31076207449468        0.09582254840369        0.03363588658987
C            2.61145648662805       -1.23168638164981        0.02687883553737
N            1.43387191271456       -1.94221698592017        0.00116728167783
C            0.39892314322059       -1.06047749438274       -0.00828920318153
C            0.93180407725898        0.21815775220274        0.01274883487932
C            0.10219881558919        1.39105424415912       -0.00337492877901
O            0.50106344399925        2.55591632417727       -0.00055014199996
N           -1.26059138533232        1.04887747295904       -0.02853796442565
C           -2.21976642034499        2.14692837321825       -0.04535781225383
C           -1.82410064041524       -0.20207088560715       -0.04650029673759
O           -3.02106542074030       -0.38333066935636       -0.07002146501396
N           -0.93420230279605       -1.30314371744383       -0.03668263741019
C           -1.47941316052046       -2.64250645736003       -0.06146872517274
H            3.68550100363473        1.25445266717675        1.07677048794615
H            4.04367149546809        1.02147421307439       -0.64895329696990
H            2.69615630812572        2.10389988122868       -0.12535059915186
H            3.59532772079394       -1.65349015394813        0.03473347448534
H           -1.65773367234113        3.07798118683853       -0.01988810023625
H           -2.82606859643958        2.09626270903657       -0.94940278209598
H           -2.87775944606478        2.07752521202167        0.82033845842454
H           -1.18136211591768       -3.19577189655477        0.83097605186438
H           -1.15298802961036       -3.17423340429451       -0.95723749859614
H           -2.56470534762189       -2.54697507651712       -0.07785144870999
H            1.36086865531092       -2.94649801379666       -0.01205846207118
25
 energy: -5.387454057126 xtb: 6.6.1 (8d0f1dd)
C            3.24165595015097        1.20311045808688        0.07494322802770
N            2.32411312921445        0.11217039422489        0.01800084368181
C            2.64629443823792       -1.24825828073992        0.02007041652579
N            1.43294017697813       -1.94690596574682        0.00105086304714
C            0.41049718137015       -1.06546600085046       -0.01037554931142
C            0.93055488316320        0.21906375464508        0.00182614102198
C            0.11230765254308        1.36707460516121       -0.00259344536531
O            0.49451294675799        2.55217963355272        0.00522980148804
N           -1.27197188191230        1.03082540208254       -0.02263018283136
C           -2.21715267527962        2.13698054760138       -0.03276599437988
C           -1.82599709096983       -0.20734050332486       -0.04442655213534
O           -3.03052761157670       -0.39424185713636       -0.06846898061531
N           -0.93938332722207       -1.30498527236403       -0.03635268637292
C           -1.49607823088618       -2.63608420099816       -0.06467125521570
H            3.60918102882618        1.34928735789791        1.10536508964873
H            4.12067298793495        0.99049032213218       -0.57794793869199
H            2.70107836227588        2.10794151002648       -0.22352713724681
H            3.62984490307403       -1.66705848497498        0.01630850648256
H           -1.63225759772631        3.05518874622168       -0.00457136961065
H           -2.82669718576499        2.10219627462699       -0.93648101160488
H           -2.87570973166616        2.07747049257237        0.83421087379941
H           -1.21007984174921       -3.19768064909591        0.82794763365569
H           -1.17296241398380       -3.17403765774675       -0.95933062635639
H           -2.58083293392435       -2.52455769503689       -0.08623830075095
H            1.33821155007086       -2.94833432864514       -0.00753847074263
25
 energy: 1.500414101293 xtb: 6.6.1 (8d0f1dd)
C            3.23859102619442        1.23015343930152        0.06481211918861
N            2.34212306110760        0.12640267897901       -0.00943195950361
C            2.69130746360186       -1.26775140382763        0.00929807289857
N            1.44009480093849       -1.95467326809199        0.00118289720768
C            0.42787323544609       -1.07823758894136       -0.01447492543310
C            0.93328974668712        0.21419307107840       -0.01623227053144
C            0.12571721654173        1.33736513416420       -0.00158427855514
O            0.48242288735741        2.54094777885455        0.01216981064965
N           -1.28432260870022        1.00926050267449       -0.01220860675455
C           -2.21026821413096        2.12600009859136       -0.00907337865483
C           -1.82416924976053       -0.21768021666088       -0.04087877765118
O           -3.03454296238604       -0.41345371365074       -0.06657752141290
N           -0.94017690397537       -1.31134824639515       -0.03592654941889
C           -1.52302662775232       -2.62888523335900       -0.07102936478657
H            3.45812448447951        1.51707601077678        1.15030530822749
H            4.24323959954882        0.93529755963659       -0.44043191747938
H            2.72083359124434        2.10640537184727       -0.40867032177942
H            3.67765298996931       -1.67935115228071       -0.01796812192889
H           -1.59488950327104        3.02579570813531        0.02599862721234
H           -2.82457258474693        2.11504637529903       -0.91149805424342
H           -2.86847931657101        2.07557470255344        0.85950154817217
H           -1.26263178733289       -3.20418783804082        0.82220466853129
H           -1.21155121764955       -3.17591348533030       -0.96525440485441
H           -2.60647960547764       -2.48520582999040       -0.10033307042495
H            1.31605514657415       -2.95380185315091        0.00313436747221
25
 energy: 10.748019995435 xtb: 6.6.1 (8d0f1dd)
C            3.22851314858979        1.25300383663339        0.05711722269363
N            2.35672577715077        0.13120694241204       -0.03127267671241
C            2.72780398280315       -1.27964529075048        0.00006300396035
N            1.45605407394791       -1.96380781020196        0.00366111498495
C            0.44367692491417       -1.09498055326246       -0.01560127725209
C            0.94013158024665        0.20302398401691       -0.02702389172285
C            0.13577405933019        1.31759822883557        0.00259761984078
O            0.47355763918441        2.52571464068182        0.01791139729079
N           -1.29026185384413        0.99540183422789       -0.00219663653835
C           -2.20152645686963        2.11971371771370        0.01148082901667
C           -1.81891295612854       -0.22898325032753       -0.03840801601099
O           -3.03022577849097       -0.43122710087421       -0.06875060684669
N           -0.93485157303534       -1.32147133017820       -0.03427293138848
C           -1.55029290504646       -2.62540921255890       -0.07718441129665
H            3.31526756082556        1.66617165364960        1.16356496318309
H            4.32431543933372        0.90184016530168       -0.30705148654410
H            2.75653776263192        2.09687154640644       -0.56560931551845
H            3.72044529347878       -1.68121357520179       -0.05602158884555
H           -1.56432693505078        3.00470327883028        0.05383805175805
H           -2.81791040800343        2.12807486677046       -0.89008322079821
H           -2.85976770832351        2.07378106964585        0.88032000888876
H           -1.32425811078047       -3.21231782478190        0.81908064399665
H           -1.25178980811218       -3.18220489740392       -0.96962330874334
H           -2.63143673307102       -2.44473163577681       -0.11826198122942
H            1.30897265225579       -2.96208468163543        0.01876038998124
25
 energy: 11.005723890391 xtb: 6.6.1 (8d0f1dd)
C            3.21101049229504        1.26855162323829        0.05334242581103
N            2.36595772537531        0.12238460224855       -0.04402109018188
C            2.74998153825289       -1.27895175861793       -0.00655278567677
N            1.48271065576308       -1.97159137368238        0.00802655479375
C            0.45555964425803       -1.11499788834681       -0.01243352962337
C            0.95250783972215        0.18454165069450       -0.02565615983177
C            0.14105011458004        1.31219455371733        0.01071353618018
O            0.46624024452437        2.50258554797862        0.02282481008418
N           -1.28800704284041        0.99303049204437        0.00642199611347
C           -2.19139294062882        2.11983847801146        0.02458420754855
C           -1.80977721286678       -0.24064495647536       -0.03717781686516
O           -3.01374086425576       -0.44495244951105       -0.07626945383865
N           -0.92137941414646       -1.33509394232983       -0.03022848917553
C           -1.57518853248232       -2.62681998866041       -0.08187442900345
H            3.19839780425496        1.77255963578510        1.12317440752779
H            4.33698448666891        0.90536153147065       -0.18910345078425
H            2.81591562923300        2.07404299868617       -0.65968131708009
H            3.75304746818108       -1.66805097185909       -0.09744183064155
H           -1.54427409342946        2.99452798910983        0.07307287760014
H           -2.80606828996744        2.13919933536575       -0.87655440758772
H           -2.85070390484325        2.07333081927622        0.89158130412127
H           -1.39270017772831       -3.21997432502519        0.82032253895087
H           -1.28955163102585       -3.19320515996346       -0.97015627500814
H           -2.65244849389740       -2.40762582795159       -0.13951252026907
H            1.31808362293986       -2.97121201303168        0.03963279298362
25
 energy: 2.752665954826 xtb: 6.6.1 (8d0f1dd)
C            3.19194081917099        1.27342073185152        0.05601482355664
N            2.36581728316651        0.09937064803161       -0.04214897415594
C            2.74408649611078       -1.25096712937236       -0.00005566796827
N            1.52176651840031       -1.97204765379881        0.00925169138934
C            0.45734530841227       -1.13239057995788       -0.00744674367783
C            0.96995191068155        0.16131205841683       -0.01275572017477
C            0.14379016476567        1.32379742965250        0.01424047178976
O            0.47079081121619        2.47644630784383        0.03077593448652
N           -1.26577038001103        0.99927848046949        0.01171159955645
C           -2.17637378472224        2.12276347946836        0.03206243516821
C           -1.79734132131449       -0.25091386438743       -0.03726906470555
O           -2.98818898119407       -0.44153047445740       -0.08653572602984
N           -0.89967486732358       -1.35265314661262       -0.02398553862362
C           -1.59223285901182       -2.63538244651636       -0.08481973143509
H            3.08479497150394        1.81799450328326        1.01164825196430
H            4.26256482434483        0.94405631321505       -0.07093923426278
H            2.91045176689062        2.01141769618308       -0.70488755537066
H            3.75672487434183       -1.62906740681384       -0.13687696541560
H           -1.54049824756996        2.99877244001873        0.08556029663117
H           -2.78764923574566        2.14583040363555       -0.86879788298235
H           -2.83796771845588        2.07036397761814        0.89603477662329
H           -1.45895024605502       -3.22328860678336        0.82442932836247
H           -1.31575944539150       -3.20891737585691       -0.96573946493212
H           -2.66043944204015       -2.38492475728411       -0.16348538505464
H            1.35303544776636       -2.97371242567481        0.06104794140837
25
 energy: 9.873904374340 xtb: 6.6.1 (8d0f1dd)
C            3.17265745270486        1.29010126968009        0.04596518199808
N            2.36945238637645        0.09688314365916       -0.05488111215462
C            2.76274325847911       -1.23759253135010        0.00672665814604
N            1.55333172332591       -1.97963853743212        0.00977598878440
C            0.46781861133665       -1.15199474905189       -0.00569868900969
C            0.97683828303252        0.14307272114084       -0.01437585025637
C            0.15750240963497        1.31152614454715        0.01719574229747
O            0.48703478534908        2.46690099503232        0.04830637224079
N           -1.24730720176478        0.98622989607111        0.02269271429580
C           -2.15602908790820        2.11557769252929        0.05575874653493
C           -1.78413192436165       -0.26167648941629       -0.03536689696873
O           -2.97719699691436       -0.43977953959314       -0.09464608542528
N           -0.88792790453480       -1.37243156271750       -0.01876304915377
C           -1.62011557284801       -2.63976421579721       -0.09134679606381
H            2.87142113934790        1.95624372651821        0.96039513935681
H            4.28958032285606        0.92837738249290        0.11135516342596
H            2.99502886616291        1.95358879438512       -0.88501068922707
H            3.77849831553989       -1.59934466562833       -0.19137058340632
H           -1.52083256618574        2.99193591240387        0.12100337545730
H           -2.76677744935495        2.15707172467757       -0.84589178472025
H           -2.81948938652226        2.05955268155407        0.91841436637255
H           -1.54173497582695       -3.23127127094208        0.82486771698559
H           -1.35162832429936       -3.22732248315744       -0.96440033494257
H           -2.67858953669667       -2.34822230901637       -0.19605400586640
H            1.38206804100797       -2.97899512841722        0.08238260744661
25
 energy: 8.095706530833 xtb: 6.6.1 (8d0f1dd)
C            3.15771166545363        1.29675160478859        0.03306934288120
N            2.36110952648428        0.09966950999526       -0.05903654430340
C            2.75974196729228       -1.22075610602081        0.02211755312506
N            1.56605624293714       -1.98077843911155        0.01153481978398
C            0.46953127143635       -1.15856240991619       -0.00439975350027
C            0.97249718025889        0.13732758763295       -0.01335422737838
C            0.16414766949641        1.30417094125251        0.01766075088370
O            0.51178918659307        2.47540656785130        0.06499311800221
N           -1.22702462021881        0.97722763137412        0.02607692004552
C           -2.13931855392984        2.10875653158748        0.06518856312613
C           -1.77331066102839       -0.26272304816860       -0.03579942404156
O           -2.97227880675213       -0.42572920538779       -0.10344263319634
N           -0.88569103348251       -1.38430614853051       -0.01516326606774
C           -1.63039543928076       -2.64349571319414       -0.09291414489256
H            2.76129933532183        1.98803132316757        0.88125949838555
H            4.26497521568424        0.94732339936911        0.20428547767792
H            3.04894365604843        1.90162969447286       -0.93542503445169
H            3.76661479254498       -1.57487350401812       -0.21875973699727
H           -1.50991081658948        2.99300399198126        0.14067798200686
H           -2.74632172859964        2.15620550773518       -0.83933819228040
H           -2.80373358723575        2.04361719685559        0.92664023904147
H           -1.58616837819969       -3.22855538054020        0.83026023458309
H           -1.35329882451788       -3.24543884574920       -0.95464998291822
H           -2.68020702380050       -2.33656457886534       -0.22357199542502
H            1.41545643202044       -2.97830950638924        0.09912433205762
25
 energy: 2.757471126598 xtb: 6.6.1 (8d0f1dd)
C            3.14207543112664        1.30448615538247        0.02317862209088
N            2.34822086697156        0.10758056799484       -0.05145615576691
C            2.75247685459384       -1.20734437776167        0.05439129246942
N            1.56811491308659       -1.98071250326388        0.01484920115806
C            0.47080139592638       -1.16042780212561       -0.00304566071281
C            0.96212067562204        0.13815123508908       -0.01000944191862
C            0.16662770751245        1.29364599141622        0.02534314195848
O            0.54740450546646        2.48045598284845        0.08621266140953
N           -1.20606605522551        0.97140318956214        0.03007361788092
C           -2.12259397665548        2.10222915428600        0.07210311202531
C           -1.76001012437716       -0.25677068104637       -0.03934533760164
O           -2.96741193437410       -0.40536698159614       -0.11534011820294
N           -0.88925043109439       -1.39323247505178       -0.01293076350209
C           -1.63589533129983       -2.64377093593660       -0.09565371475329
H            2.68315645113200        1.99585023660650        0.75969635515591
H            4.18912431022236        0.99095567752377        0.27814634941331
H            3.10685490702122        1.83344163323577       -0.95363741996764
H            3.73804619744949       -1.55730026274312       -0.24317170926954
H           -1.49743258496663        2.99424945186850        0.16131100062810
H           -2.71933081600033        2.15071387213547       -0.83866319673521
H           -2.78901211913001        2.02038991337545        0.93017454806505
H           -1.62754996285561       -3.21423643077759        0.83685431686838
H           -1.33174174158474       -3.26783610465278       -0.93596594052806
H           -2.67475406019496       -2.32989662526767       -0.26721603980520
H            1.45823958956431       -2.97762927892937        0.12113517578807
25
 energy: 5.337762446399 xtb: 6.6.1 (8d0f1dd)
C            3.12327775583145        1.31505335082368        0.00767127165306
N            2.34381845550072        0.10731044384051       -0.05021378059647
C            2.75854909496931       -1.20658666012072        0.08685559258907
N            1.57307536413080       -1.98548148216726        0.01845493556954
C            0.47589267193918       -1.17001337392656       -0.00189011833125
C            0.96039657514259        0.13104446796776       -0.01050946025455
C            0.16936643107295        1.28459651971991        0.04234606778194
O            0.56923860522630        2.46532073976608        0.10879347837883
N           -1.19432642392340        0.97178582476196        0.04221734320914
C           -2.10818702643365        2.10102825963000        0.08879202971164
C           -1.74770146867708       -0.25360021699828       -0.04247803711550
O           -2.95674227333228       -0.39411302358593       -0.12627497220756
N           -0.88900431551489       -1.40192681465963       -0.01120731904892
C           -1.64704170701897       -2.64200299308745       -0.10254375031644
H            2.54042951736680        2.07752273430784        0.62495879788313
H            4.14692957968787        1.02779813620854        0.41942606963423
H            3.20136928124857        1.74954018245545       -1.03679109585554
H            3.72651927252623       -1.54911365822063       -0.29012554473964
H           -1.48030435357205        2.98985838367813        0.19427932131471
H           -2.69174538831370        2.15509697944920       -0.82878402612633
H           -2.77890984764612        2.00102640608356        0.94054426828575
H           -1.68928650068135       -3.19475216774591        0.84340645795755
H           -1.31009739847085       -3.29097616575919       -0.91372133313546
H           -2.67405227390010       -2.31624738700401       -0.32739706929227
H            1.49075104077830       -2.98313988324498        0.15122476919889
25
 energy: 3.393368310143 xtb: 6.6.1 (8d0f1dd)
C            3.12036191195132        1.31413595780741       -0.00674723211446
N            2.34150586323392        0.10477487285918       -0.04135610069479
C            2.75679514518411       -1.21639404911423        0.11704310187537
N            1.56102603118722       -1.98742297308452        0.02439030515847
C            0.47555505555559       -1.17019622628155       -0.00021176008952
C            0.96001751624083        0.13120664809471       -0.01237818394526
C            0.16256943847732        1.28547580749744        0.05911368027150
O            0.56492509385240        2.46035635994231        0.12851845211674
N           -1.19688169934690        0.97841643666121        0.05154719823564
C           -2.10701713413453        2.10569325998150        0.09826560421600
C           -1.74520304867294       -0.24980210860196       -0.04619369854809
O           -2.95264393461913       -0.39275829227945       -0.13486661687006
N           -0.89189929834515       -1.39808619755760       -0.01306226240184
C           -1.64203766999608       -2.63716599279278       -0.10922812142842
H            2.49534826722891        2.10314860585438        0.50653901139539
H            4.10582435125427        1.06859613887213        0.48851723611122
H            3.27410370400536        1.68272476097364       -1.05543512930646
H            3.70092600839041       -1.55884017260724       -0.31333928260487
H           -1.47671583055845        2.98908557051539        0.21619510239616
H           -2.67776346928747        2.16313715068361       -0.82659091633788
H           -2.78518528487552        1.99313383807108        0.94143865660945
H           -1.71559965332417       -3.16516614155981        0.84920173017207
H           -1.26190548632875       -3.30566145607835       -0.88759353021502
H           -2.66016856279699       -2.32399339269690       -0.38368086996197
H            1.50627735366108       -2.98536980298751        0.17694752210816
25
 energy: 0.114119900326 xtb: 6.6.1 (8d0f1dd)
C            3.13179562947373        1.30098500573260       -0.01986395068971
N            2.34097938329315        0.09865946178474       -0.01746946045388
C            2.74764148032971       -1.23337286136441        0.15089986413103
N            1.53545161109654       -1.98735585246063        0.03682204325401
C            0.46870262891878       -1.16119359238300        0.00572031710362
C            0.96227638996490        0.13707692936517       -0.01137043854887
C            0.15176012501193        1.29438302755137        0.07496636865026
O            0.54055661123869        2.46237425511788        0.16015353320166
N           -1.20831794993297        0.98878654819356        0.05957596098495
C           -2.11690668716860        2.11446169583821        0.10728833476730
C           -1.75187258481903       -0.24687052459098       -0.04921484025962
O           -2.95561362655413       -0.39777062641512       -0.14705902951661
N           -0.89576996494061       -1.38187480593347       -0.01754396379282
C           -1.62082999362747       -2.63155336853249       -0.11875911649232
H            2.49054168801187        2.11532151391940        0.36857507035251
H            4.05562157651258        1.11142775151833        0.54628966058794
H            3.37811317649463        1.59680318120083       -1.07256372220879
H            3.65774433294280       -1.58003448695235       -0.33536056005996
H           -1.48876069843768        2.99299423384179        0.24227343050935
H           -2.67436313182802        2.18153065350908       -0.82589335724623
H           -2.80909122017183        1.99261312045613        0.93715262817414
H           -1.72673246595565       -3.12400931595996        0.85371999024998
H           -1.17951079280444       -3.31695751009324       -0.84988706456846
H           -2.62841874841137       -2.35467751816702       -0.45634971839149
H            1.50721789929917       -2.98271831300434        0.20493191640954
25
 energy: -0.287347323661 xtb: 6.6.1 (8d0f1dd)
C            3.14552798375025        1.28221979090169       -0.05023757613003
N            2.34025248925397        0.09075814470633       -0.00056060157483
C            2.73441155663994       -1.25114664992010        0.17854015821116
N            1.50632593802187       -1.98750006530080        0.05356138586718
C            0.45775506456994       -1.14720800666106        0.01337517850724
C            0.96430538277203        0.14537713798086       -0.01167918700203
C            0.14460837639708        1.30459150676845        0.08843800261466
O            0.52048649820369        2.46746836559071        0.20126439451049
N           -1.21874476395499        0.99853405650711        0.06568472838391
C           -2.12961346573648        2.12307060930125        0.11768174233464
C           -1.76188947354205       -0.24327831505145       -0.05173404584993
O           -2.96253362778445       -0.40114184295250       -0.16070903712438
N           -0.89985123932823       -1.36061666843107       -0.02130910599260
C           -1.59227500247221       -2.62756803844495       -0.12599159144669
H            2.45255877889140        2.14070626764462        0.19044236116671
H            4.03068634239323        1.16749610905852        0.65196028976540
H            3.50453619161032        1.47431233718067       -1.08591034080335
H            3.60399867401635       -1.60284321838408       -0.37689955032590
H           -1.50855248915989        3.00071584060955        0.27811040165546
H           -2.67288688438957        2.20664819081110       -0.82408355932701
H           -2.83948871436815        1.99011005304602        0.93158820075536
H           -1.74463514682633       -3.07801464804484        0.86322227911749
H           -1.07598604092995       -3.32967625075037       -0.79632568482473
H           -2.58528784687717       -2.39533561661891       -0.54379730096507
H            1.49850608678612       -2.97865048737467        0.24240235462433
25
 energy: -2.820048746785 xtb: 6.6.1 (8d0f1dd)
C            3.16637536927914        1.26010808435542       -0.06541571854508
N            2.33985185205616        0.08681355916539        0.02421498349326
C            2.71726829061931       -1.26271295938675        0.18382226482071
N            1.47980406038205       -1.98372637679873        0.07272830936209
C            0.44436007954910       -1.12650882806046        0.02407224183835
C            0.96439145579507        0.15960718882206        0.00000100475545
C            0.14135423995615        1.31799105889482        0.09768847977053
O            0.50728690238332        2.47988596454268        0.23370189589902
N           -1.22998911837240        1.00681065293737        0.06270347327942
C           -2.14717808163329        2.12938514595525        0.11734473557633
C           -1.77633253535822       -0.23867993034271       -0.05598429239388
O           -2.97401010006599       -0.40539454149496       -0.17229733969833
N           -0.90384729280869       -1.33677520420071       -0.02596302070309
C           -1.55896246240187       -2.62684248694419       -0.13019996521650
H            2.48726308348209        2.13240471271282        0.09331666846082
H            4.00100095926725        1.19522517581760        0.67116186409607
H            3.58046928349404        1.38873615610951       -1.07427906131909
H            3.55870309634116       -1.62208853305427       -0.39759196863072
H           -1.53717773687369        3.01126714907577        0.30242438063053
H           -2.67975503819489        2.22753327060535       -0.83022830378274
H           -2.87218541780205        1.98685213483196        0.91788729339478
H           -1.73692036394579       -3.05270865403586        0.86355215852119
H           -0.98907887962710       -3.32484084068660       -0.75454484067381
H           -2.53987131877216       -2.44241416227305       -0.59760127077205
H            1.46939434118805       -2.97089913437565        0.26651992398426
25