25
 energy: -47.697902558317 gnorm: 9.340439462218 xtb: 6.6.1 (8d0f1dd)
C            3.21786164340000        1.13591514650000        0.01837059260000
N            2.27034809790000        0.05199982890000        0.00038279530000
C            2.54167221030000       -1.23971668410000       -0.00834188300000
N            1.39367826450000       -1.95088267900000       -0.00850347120000
C            0.35269634020000       -1.06748964300000        0.00059917290000
C            0.90759959010000        0.20069750900000        0.00663590170000
C            0.07590235260000        1.39864294500000       -0.00284827040000
O            0.48715076820000        2.53168346660000       -0.01725767220000
N           -1.27221500230000        1.06666939660000        0.00165480230000
C           -2.23229981500000        2.16656245330000       -0.00245172030000
C           -1.84872931540000       -0.19179276200000        0.00496135950000
O           -3.03273030250000       -0.36103538130000        0.00858583760000
N           -0.96599111670000       -1.30060631840000        0.00174701630000
C           -1.52030655580000       -2.64076660390000       -0.00239033190000
H            3.71480285180000        1.18589984860000        0.98803183970000
H            3.97079415090000        0.99383197990000       -0.75543416370000
H            2.68321036910000        2.07051068580000       -0.15067179540000
H            3.52469367910000       -1.66989040330000       -0.01523639120000
H           -1.67672429040000        3.10039111610000        0.00486339690000
H           -2.85755792270000        2.10547813320000       -0.89185337000000
H           -2.87119733260000        2.09858159720000        0.87661144540000
H           -1.20589108080000       -3.18768007210000        0.88663215920000
H           -1.21982032550000       -3.17678505510000       -0.90288069810000
H           -2.60531402170000       -2.54255916880000        0.00649952960000
H            1.32879827740000       -2.95942079410000       -0.01653446370000
25
 energy: -60.831127498533 gnorm: 17.039783761443 xtb: 6.6.1 (8d0f1dd)
C            3.21784160231347        1.13594714840037        0.01835507146781
N            2.27045653078488        0.05238601027131        0.00045040081682
C            2.54185605079425       -1.23982963167727       -0.00831925925307
N            1.39362246979534       -1.95100106114350       -0.00847908814129
C            0.35302747658878       -1.06803673929503        0.00063237113614
C            0.90795801384360        0.19600256154070        0.00637527201398
C           -0.02055188373138        1.05542310302308       -0.07411894607614
O            0.48313131667401        2.51917765392729       -0.01732363328845
N           -1.27536175627106        1.06276903685499        0.00143036185813
C           -2.23200555737742        2.16668187133689       -0.00242541754760
C           -1.84929909975221       -0.19194913547893        0.00496738580381
O           -3.03289206463491       -0.36105568278620        0.00862692412990
N           -0.96624388949765       -1.30035223117876        0.00220826583485
C           -1.52086354177273       -2.63792831627496        0.00050079548036
H            3.71480439918406        1.18591267607391        0.98802471403772
H            3.97079180427835        0.99383456577719       -0.75544410913092
H            2.68320528256655        2.07051210090513       -0.15068493251407
H            3.52468947966462       -1.66988113656903       -0.01522972892979
H           -1.67669406241105        3.10039749043255        0.00483740462819
H           -2.85757627559143        2.10547771418601       -0.89185000820233
H           -2.87119755405481        2.09860137707193        0.87660503848614
H           -1.20575607909970       -3.18787965387202        0.88651722088969
H           -1.11596527788274       -2.81489995232134       -0.83428659141336
H           -2.60535603476574       -2.54265772435524        0.00632052665401
H            1.32881016445493       -2.95941350324904       -0.01651842084054
25
 energy: -81.792329704029 gnorm: 24.981755763466 xtb: 6.6.1 (8d0f1dd)
C            3.21785847957612        1.13595027152037        0.01832469786206
N            2.27062258018651        0.05295836185150        0.00045843987180
C            2.54201207741440       -1.24001750638938       -0.00829022048650
N            1.39345950063346       -1.95126125010596       -0.00843656404208
C            0.35337095571145       -1.06943542421463        0.00072157592694
C            0.91010813763938        0.19039366888307        0.00625156190326
C           -0.11840854539211        0.71172049830927       -0.14549020071619
O            0.47978265477065        2.50823491745754       -0.01761483361459
N           -1.27953762899684        1.05936061655435        0.00125666434642
C           -2.23159055393174        2.16681256544278       -0.00244053386148
C           -1.85016907489143       -0.19227823349777        0.00506068117087
O           -3.03310430804292       -0.36118751931069        0.00867444122311
N           -0.96644588488385       -1.29932055917225        0.00307023871149
C           -1.52230929171334       -2.63512752685926        0.00497215123815
H            3.71480769753967        1.18592371497091        0.98800293143803
H            3.97079067008466        0.99381619301177       -0.75547581195847
H            2.68313271758427        2.07052093354755       -0.15071477650187
H            3.52467872015631       -1.66987934514727       -0.01521724534830
H           -1.67659826868655        3.10040245551628        0.00479890717310
H           -2.85755951232111        2.10544385774741       -0.89186193574518
H           -2.87114687504717        2.09858113523085        0.87659171205143
H           -1.20564784909758       -3.18806168577435        0.88640943167968
H           -1.01110904448065       -2.45310786976401       -0.76756945010830
H           -2.60540395355878       -2.54276137553193        0.00616927117837
H            1.32883811384720       -2.95944235267618       -0.01647951549177
25
 energy: -110.777467168337 gnorm: 33.053898443342 xtb: 6.6.1 (8d0f1dd)
C            3.21789245954566        1.13594932417482        0.01830689296437
N            2.27081812226170        0.05361901300897        0.00043873823733
C            2.54221757309551       -1.24037356467512       -0.00827087292589
N            1.39330821872429       -1.95164887464039       -0.00841838160936
C            0.35383395121039       -1.07162499881673        0.00093837405278
C            0.91476753626392        0.18534854246887        0.00671029956726
C           -0.21901567170026        0.36653848850532       -0.21733034490148
O            0.47766182235997        2.50104799135897       -0.01787093649205
N           -1.28335379130695        1.05709004351115        0.00127400922519
C           -2.23121272608139        2.16697235359098       -0.00248222825926
C           -1.85132713875311       -0.19274700837316        0.00528151602362
O           -3.03341206654198       -0.36138016954113        0.00870765793055
N           -0.96671432589978       -1.29774456579743        0.00429233229004
C           -1.52362928797457       -2.63390605611068        0.00810592494313
H            3.71482001840860        1.18591084908559        0.98798888081091
H            3.97079305619759        0.99378288284088       -0.75550852472182
H            2.68308133959347        2.07050825601844       -0.15073522262015
H            3.52465396778015       -1.66989647834430       -0.01521562150287
H           -1.67648793899492        3.10041170132810        0.00478148869046
H           -2.85753381110134        2.10543243320767       -0.89186688899545
H           -2.87107394626120        2.09855752923531        0.87659697327287
H           -1.20555860006147       -3.18821491436542        0.88629300497505
H           -0.90751744223253       -2.09302789258699       -0.70038694507378
H           -2.60544547284363       -2.54285465653392        0.00600289321110
H            1.32886566841188       -2.95951168694981       -0.01646140119254
25
 energy: -147.727198917405 gnorm: 40.851423968853 xtb: 6.6.1 (8d0f1dd)
C            3.21791257468950        1.13600871997709        0.01832505207945
N            2.27074483360696        0.05430884287492        0.00044677126891
C            2.54257970441268       -1.24090124852071       -0.00825391907032
N            1.39331828571048       -1.95199044872994       -0.00844532697852
C            0.35445193218591       -1.07401514232150        0.00142166003622
C            0.91904065887949        0.18360530616294        0.00732561197133
C           -0.31967568890543        0.01831561216921       -0.28921570530557
O            0.47626542034812        2.49635968970175       -0.01793030790654
N           -1.28537181815160        1.05550585357307        0.00132304850485
C           -2.23097175934208        2.16708426759043       -0.00254388570436
C           -1.85261927510066       -0.19311040691611        0.00555866823510
O           -3.03379136314328       -0.36162940338024        0.00870979114207
N           -0.96725276242479       -1.29651707765538        0.00555854543090
C           -1.52410495050068       -2.63337124104472        0.00936339963899
H            3.71480752802445        1.18592742142102        0.98801064553591
H            3.97077953163741        0.99380148090838       -0.75550863766921
H            2.68301643174544        2.07053065611652       -0.15071718293091
H            3.52464586259354       -1.66987554375826       -0.01521201863142
H           -1.67641238701549        3.10039235356069        0.00478832736193
H           -2.85754228344172        2.10541021572189       -0.89187348594201
H           -2.87103989270803        2.09849247759108        0.87661163706981
H           -1.20545452331659       -3.18833224368613        0.88619609815049
H           -0.80636492214240       -1.73524139405276       -0.63211138946106
H           -2.60542897445181       -2.54295979436255        0.00582316909202
H            1.32889935091060       -2.95956041134067       -0.01647894801805
25
 energy: -192.354274566108 gnorm: 48.538277146934 xtb: 6.6.1 (8d0f1dd)
C            3.21790937959101        1.13608292391819        0.01827099114183
N            2.27044409453782        0.05484191470623        0.00040614397949
C            2.54304547997850       -1.24125929535613       -0.00821137014398
N            1.39322848126291       -1.95234748190768       -0.00839728595644
C            0.35665213286305       -1.07737892667782        0.00266820170992
C            0.92123430641364        0.18317182550332        0.00769843872844
C           -0.41923673093308       -0.33153037321792       -0.36179088374354
O            0.47511431290852        2.49245157798956       -0.01803189092062
N           -1.28665410220529        1.05390486835321        0.00141980247833
C           -2.23080656304944        2.16712080564634       -0.00268033942145
C           -1.85426710220278       -0.19273004438566        0.00592394253264
O           -3.03414361670237       -0.36196437785764        0.00872578021304
N           -0.96881850014442       -1.29434683146977        0.01010811609399
C           -1.52451264127161       -2.63319429135808        0.01050372023641
H            3.71478719890947        1.18600519641783        0.98795777706959
H            3.97075283669454        0.99381776703394       -0.75556654791650
H            2.68293802292157        2.07056617539399       -0.15079722261756
H            3.52465278982970       -1.66983846347163       -0.01516163724476
H           -1.67637232724720        3.10034707449585        0.00467829406432
H           -2.85758153170857        2.10534026696903       -0.89194872521766
H           -2.87103598700389        2.09845100692742        0.87655466541102
H           -1.20533851117769       -3.18837961899651        0.88628594510062
H           -0.70512155046484       -1.37824836925031       -0.56685997659187
H           -2.60539176794813       -2.54304099391457        0.00579946543879
H            1.32895341024859       -2.95960379389120       -0.01638378652406
25
 energy: -242.314460524411 gnorm: 43.069690140778 xtb: 6.6.1 (8d0f1dd)
C            3.21791003766480        1.13609243538892        0.01801100627858
N            2.27021031810312        0.05504609257177        0.00027741064860
C            2.54346272979113       -1.24142024532828       -0.00813264256866
N            1.39315541567743       -1.95283280128976       -0.00819991934825
C            0.36191526036205       -1.08162348814074        0.00537045570661
C            0.92227930026343        0.18293819718501        0.00809113559817
C           -0.51761839953850       -0.67974974690174       -0.43760975369643
O            0.47415233392716        2.48898500825829       -0.01841010061022
N           -1.28794785272040        1.05279404840240        0.00154989916696
C           -2.23069045179597        2.16716376898193       -0.00293973543053
C           -1.85597051710818       -0.19135548524397        0.00646979119837
O           -3.03445801562575       -0.36228973565518        0.00881599031092
N           -0.97678040485009       -1.29646946607889        0.02481752567866
C           -1.52479524707360       -2.63276596838630        0.01180288319363
H            3.71480799573262        1.18612012081165        0.98768438454718
H            3.97072670693334        0.99369788178639       -0.75582686440472
H            2.68289245883718        2.07054240413798       -0.15115514952340
H            3.52464234635045       -1.66987031250904       -0.01504109254776
H           -1.67629741155773        3.10032253661086        0.00429522290430
H           -2.85761598351388        2.10523674756155       -0.89215966104370
H           -2.87100103863427        2.09856460490325        0.87635626472755
H           -1.20526673982106       -3.18831396294294        0.88673003391360
H           -0.60084088289764       -1.01983070825182       -0.50972205886716
H           -2.60540970375314       -2.54307080716366        0.00612178071025
H            1.32896925934751       -2.95967257710771       -0.01602518864255
25
 energy: -242.990162471029 gnorm: 43.192293549816 xtb: 6.6.1 (8d0f1dd)
C            3.21742127788648        1.13731567210322        0.02030910979368
N            2.27021861704456        0.05585734076722        0.00133557638525
C            2.54421096303877       -1.24041030296097       -0.00846481578610
N            1.39432037651395       -1.95312713401216       -0.00952282489768
C            0.37796067705876       -1.08454920067682        0.01198081834650
C            0.92346837053243        0.18427608635590        0.00938926336638
C           -0.58611079203691       -0.99166742518451       -0.54317290768706
O            0.47299021184072        2.48824091693589       -0.01558040151005
N           -1.28925505387388        1.05228782702728        0.00255291080550
C           -2.23151273852843        2.16600138107935       -0.00136387778339
C           -1.85756671591317       -0.18863608841544        0.00662817135568
O           -3.03488758817829       -0.36409932004474        0.00723833052480
N           -1.00264435557957       -1.33531746515767        0.04891105959204
C           -1.52340730414315       -2.63278539979333        0.00918932945521
H            3.71392095263583        1.18657035672594        0.99024742180803
H            3.97054469997372        0.99606694690279       -0.75337494955359
H            2.68198809124335        2.07174420256441       -0.14802727851606
H            3.52530775037649       -1.66850054667063       -0.01551007768711
H           -1.67755541180960        3.09954073875195        0.00695834544365
H           -2.85822954831110        2.10494078914449       -0.89094027760945
H           -2.87224605514873        2.09644906433214        0.87758997887063
H           -1.20431233104015       -3.18991521648073        0.88305442092130
H           -0.51998551066870       -0.66852363932811       -0.44228430103006
H           -2.60442958455968       -2.54426209863457        0.00260923068177
H            1.33022251574631       -2.95925894373092       -0.01858063738988
25
 energy: -225.572543652681 gnorm: 608.332454254176 xtb: 6.6.1 (8d0f1dd)
C            3.21789035981571        1.13618756482141        0.01841486059570
N            2.27010402431761        0.05513117592962        0.00072754162442
C            2.54435186653734       -1.24145926814907       -0.00817791781743
N            1.39444026732048       -1.95491539142073       -0.00812907419518
C            0.39555500616005       -1.08845266275687        0.02154197159600
C            0.92517310445602        0.18649342403711        0.00979205141943
C           -0.55335905006459       -0.83475759728943       -0.53040701991800
O            0.47457203805136        2.48901684848956       -0.01780576345795
N           -1.28934115289427        1.05283924093635        0.00238808192851
C           -2.23061251567785        2.16657204610352       -0.00248393200431
C           -1.86048676251987       -0.18311598617577        0.00876144841151
O           -3.03582105255575       -0.36375610803061        0.00808661428135
N           -1.04208654200638       -1.37272776235675        0.10118498287419
C           -1.52456170548359       -2.63324658637883        0.01252528863401
H            3.71463186190824        1.18607892634773        0.98819837872423
H            3.97070934244909        0.99407059846010       -0.75534622332912
H            2.68260329222058        2.07069965301841       -0.15049230982452
H            3.52475099357204       -1.66979313978348       -0.01518172643497
H           -1.67629747544109        3.10011448713656        0.00487576198189
H           -2.85772799423489        2.10528465744996       -0.89190370272486
H           -2.87126105004969        2.09825132518681        0.87668821439947
H           -1.20522990283862       -3.18889182147576        0.88603997879981
H           -0.53148067663523       -0.78814368706422       -0.51689515157619
H           -2.60535430009041       -2.54337644753327        0.00535071074259
H            1.32926953778370       -2.95986494790234       -0.01658144683056
