25
 energy: -43.830243272420 gnorm: 0.130753384358 xtb: 6.6.1 (8d0f1dd)
C            3.23707314589727        1.17461725521981        0.08488992384188
N            2.31722652748776        0.07677138324320        0.03871173496378
C            2.60990805047399       -1.23560328865018        0.03064147598791
N            1.44880545682913       -1.93710082125693        0.00170716135789
C            0.40138777085963       -1.05365024417783       -0.00831666099681
C            0.94231630522586        0.22171821258651        0.01520691149989
C            0.09798141688150        1.39379462226246       -0.00505488703894
O            0.49199332511980        2.55372304005577       -0.00335373254451
N           -1.25817424426772        1.06113158220644       -0.03095409764187
C           -2.22642733277429        2.15403068759561       -0.04984700346255
C           -1.82392145437193       -0.19707222510812       -0.04739408077477
O           -3.00660935954927       -0.37831806037314       -0.07033332448638
N           -0.93030981411301       -1.29490976328272       -0.03726959946568
C           -1.47243532294621       -2.64158389992391       -0.06042935633477
H            3.71056576317735        1.22504537104067        1.06687305782081
H            4.00510574217156        1.04679231450386       -0.67612187384076
H            2.68994613590351        2.10251280109297       -0.09150426980433
H            3.65542937042973       -1.75264820192692        0.04600740356277
H           -1.67896206821533        3.09292584815600       -0.02530401064564
H           -2.83184765092198        2.09554430049180       -0.95285808067349
H           -2.88386015364791        2.07858168198046        0.81446530675778
H           -1.17228525377808       -3.19129345894434        0.83210217151152
H           -1.14730141113025       -3.17063924177920       -0.95681828208094
H           -2.55970093269690       -2.55041452463197       -0.07481906222282
H            1.37182859754485       -2.94029368671177       -0.01327721540864
25
 energy: -43.837611715191 gnorm: 0.045318188990 xtb: 6.6.1 (8d0f1dd)
C            3.24702038749571        1.18000902311482        0.08678711468237
N            2.32368410528229        0.08930451810107        0.03616818149679
C            2.61535512556997       -1.24706480854290        0.03022639161734
N            1.43517075778139       -1.94280795524765        0.00154692469283
C            0.40548331310998       -1.05630417132792       -0.00866434147917
C            0.93961708530001        0.22348526484268        0.01367144056812
C            0.10888306372828        1.38684518048842       -0.00578946408241
O            0.49503924169358        2.56101099592842       -0.00481305512856
N           -1.26051073275363        1.04959503617707       -0.03114818240156
C           -2.22169960545651        2.14550178847210       -0.04963020694963
C           -1.82202318494708       -0.19995861616402       -0.04755156261460
O           -3.01764225173315       -0.38457430886000       -0.07056958274813
N           -0.93205167841896       -1.29733378442733       -0.03735239549610
C           -1.47150475514977       -2.63946688551577       -0.06032464066336
H            3.72429552805885        1.23338889516194        1.06923813799174
H            4.01547138217390        1.05641265477710       -0.67756727443650
H            2.68991653582474        2.10004890498281       -0.08810675824327
H            3.60025848067859       -1.71918584219514        0.04559129794854
H           -1.66237838231474        3.07817160492750       -0.02507298524702
H           -2.82821824379783        2.09262541573184       -0.95357832048205
H           -2.88018760384124        2.07573887081888        0.81580020547284
H           -1.16914383609846       -3.19069795540329        0.83195324905661
H           -1.14409856414685       -3.17030240093780       -0.95626104954906
H           -2.55727374636285       -2.54622885847211       -0.07471515405417
H            1.35427018791282       -2.94455088276222       -0.01288836007026
25
 energy: -43.838329211207 gnorm: 0.018706921322 xtb: 6.6.1 (8d0f1dd)
C            3.24200158679124        1.17670918346441        0.08509589071900
N            2.32696822372189        0.08884038225687        0.03425329269667
C            2.63627759122577       -1.25977272124655        0.03234459284799
N            1.44103465905192       -1.94530814778435        0.00236731844589
C            0.41480750137068       -1.06144084702174       -0.00761355117902
C            0.93808903872729        0.22160599681666        0.01452003797438
C            0.11725932288503        1.38268173550460       -0.00316829878273
O            0.49669403123964        2.56117434134531       -0.00108490292502
N           -1.26412507477385        1.05371090363313       -0.03001287971822
C           -2.22759115380446        2.15174998876312       -0.04974783942771
C           -1.81266030786341       -0.19363298760963       -0.04696400832168
O           -3.01201283992488       -0.38136457536372       -0.07091211130858
N           -0.92862528778992       -1.29601864488565       -0.03674070824851
C           -1.47202523783782       -2.63542547265387       -0.06053718068608
H            3.71092682695359        1.22560279464767        1.07114830707696
H            4.00952457096349        1.04402964453609       -0.67799252029561
H            2.68519025708291        2.09580059774386       -0.09491899534997
H            3.60779790775805       -1.71631183045606        0.04542847610272
H           -1.68667234375776        3.09619043251012       -0.02524164813705
H           -2.83657846120517        2.09681839268877       -0.95237515366793
H           -2.88987253815573        2.07997895502408        0.81303081845317
H           -1.17291055214504       -3.19114500046125        0.83104579318243
H           -1.14770147415886       -3.16990518024047       -0.95641033650612
H           -2.55771819128557       -2.54474014487859       -0.07500726707102
H            1.36965455452003       -2.94616611266429       -0.01355751599262
25
 energy: -43.838648119161 gnorm: 0.009749804536 xtb: 6.6.1 (8d0f1dd)
C            3.24102085092547        1.17879200959271        0.08739968067942
N            2.32198780761330        0.09207841731749        0.03452528266125
C            2.63292210342981       -1.25965699443840        0.03184315547182
N            1.43322637806951       -1.94032402069596        0.00177997398602
C            0.40941083112926       -1.05935110595897       -0.00831944550247
C            0.93214178492913        0.22422144816842        0.01397990203272
C            0.11426772106601        1.38195882512927       -0.00685178660465
O            0.48574069341221        2.56121724455742       -0.00703015132294
N           -1.26880044728290        1.05034804720211       -0.03216040176501
C           -2.22231629977524        2.15108988672158       -0.04990708965339
C           -1.81657010918420       -0.19510798764335       -0.04761205340980
O           -3.01564046896204       -0.38404580049453       -0.07019741914876
N           -0.93392572705407       -1.29658112825890       -0.03733764831950
C           -1.47194391976868       -2.63802328276820       -0.05994404265341
H            3.71861485805309        1.22731594967986        1.06922228992481
H            4.00778670469885        1.05335710055188       -0.67759324745037
H            2.69074310982640        2.10316954415071       -0.08495823506489
H            3.60885794251404       -1.72278994733143        0.04426106864600
H           -1.66291194488974        3.08449195694771       -0.02578666497785
H           -2.82944718496352        2.09812442615666       -0.95377792503688
H           -2.87956470441901        2.08121381821004        0.81675556692480
H           -1.16938862100071       -3.19161199416636        0.83215950767431
H           -1.14466807995183       -3.17189338561051       -0.95547167669102
H           -2.55828628967580       -2.55289457045403       -0.07426617671850
H            1.36447562084976       -2.94143677289670       -0.01376285380039
25
 energy: -43.838661208162 gnorm: 0.006435920470 xtb: 6.6.1 (8d0f1dd)
C            3.24537872139271        1.17699917070307        0.08466321869078
N            2.32236251239761        0.09161123210988        0.03464751746018
C            2.62867842303222       -1.25854595105484        0.03343490597316
N            1.43076279998814       -1.93953187128092        0.00277462661516
C            0.40875696160434       -1.05816202582078       -0.00792730237200
C            0.93382839808024        0.22536197734722        0.01520298078171
C            0.11787441131173        1.38447031415370       -0.00284258510793
O            0.49077956995423        2.56165217139180       -0.00023867048457
N           -1.26650858969316        1.05171461104100       -0.02992717091014
C           -2.22584295207089        2.14613440255813       -0.04933275615902
C           -1.81507926734436       -0.19419761553642       -0.04726078250302
O           -3.01321514153078       -0.38368962516617       -0.07124830790475
N           -0.93314904268596       -1.29496740288399       -0.03732230710429
C           -1.47269729860609       -2.63521879686774       -0.06132917649657
H            3.72156410144990        1.23409560010104        1.06726682594237
H            4.01606178795031        1.05064035506004       -0.67708961308578
H            2.69367122900541        2.09924501648935       -0.09531572404362
H            3.60839708644654       -1.72460006032643        0.04682076537047
H           -1.67291291134440        3.08245231480588       -0.02368675781566
H           -2.83077170562483        2.08866282378336       -0.95417672572011
H           -2.88574735711958        2.07114847833764        0.81469096744941
H           -1.17201963399880       -3.18957276951445        0.83082360546599
H           -1.14648862900284       -3.16788509659806       -0.95783021769578
H           -2.55847299725388       -2.54230229453199       -0.07594623661861
H            1.36252213325125       -2.94185327463182       -0.01190146984608
25
 energy: -43.838737641347 gnorm: 0.003972851278 xtb: 6.6.1 (8d0f1dd)
C            3.24215725183420        1.17681151640921        0.08746696053001
N            2.32171672858011        0.09057040374589        0.03399012267293
C            2.62858420810994       -1.25818822050492        0.03085697754610
N            1.43249124661802       -1.94127390640306        0.00049170121780
C            0.40942193665839       -1.06042531201324       -0.00896522595459
C            0.93391675221645        0.22364147750128        0.01362614806011
C            0.11925852811955        1.38383741906572       -0.00569439615061
O            0.49331310148891        2.56038866897831       -0.00466786452390
N           -1.26620829435791        1.05238089013519       -0.03136119721752
C           -2.22424255273344        2.14976236856796       -0.05006865108882
C           -1.81474827139339       -0.19450214349753       -0.04705727780253
O           -3.01296964460874       -0.38380177224954       -0.06990456017811
N           -0.93260197935060       -1.29637293291395       -0.03711635365232
C           -1.47136596056284       -2.63742268985185       -0.05952641137462
H            3.71650686666704        1.22895791322289        1.07134260350984
H            4.01168343743696        1.05264334946625       -0.67594486196460
H            2.68664828394674        2.09788105827864       -0.08872538027951
H            3.60852254838280       -1.72063567716575        0.04363864607690
H           -1.67243337290469        3.08694634084427       -0.02634241414862
H           -2.83253291917188        2.09570620483593       -0.95282453839934
H           -2.88377946953185        2.07965314285625        0.81458121879635
H           -1.16971092124336       -3.19099956560877        0.83265845338848
H           -1.14519185518869       -3.17105117743663       -0.95534195559083
H           -2.55727119926645       -2.54665560712028       -0.07361221430267
H            1.36656815984381       -2.94419006547376       -0.01454991928859
25
 energy: -43.838733801677 gnorm: 0.003494937525 xtb: 6.6.1 (8d0f1dd)
C            3.24285318822081        1.17736018488643        0.08483337108739
N            2.32227740098055        0.09161567194259        0.03481198781347
C            2.63031423285911       -1.25799779170627        0.03382441514332
N            1.43330174542504       -1.94030276809764        0.00391215104363
C            0.40982116954969       -1.06015336566221       -0.00712237089136
C            0.93345869449867        0.22443458811598        0.01534359685601
C            0.11764852293997        1.38350034518888       -0.00449261988007
O            0.48797283016568        2.56152919586814       -0.00363902466535
N           -1.26834660021892        1.05129042534773       -0.03094872244982
C           -2.22408036528971        2.15023263072671       -0.04917098584730
C           -1.81592482527398       -0.19510135726411       -0.04771779643273
O           -3.01444515672850       -0.38478388910306       -0.07173567507676
N           -0.93296930850385       -1.29650068954556       -0.03710620015581
C           -1.47199164349964       -2.63766964416978       -0.06152789914707
H            3.71974865600871        1.22775972315668        1.06726661719867
H            4.00923111939401        1.04890422143086       -0.68060899668284
H            2.69139121312869        2.10105590945851       -0.09058614461469
H            3.60826499250333       -1.72034796700679        0.04725443157167
H           -1.66971519350608        3.08630652455415       -0.02382192788682
H           -2.83123039722932        2.09808512482974       -0.95301017334598
H           -2.88360101607818        2.07992300733322        0.81565908106433
H           -1.17121439136246       -3.19216254767344        0.83029194736971
H           -1.14493393044112       -3.17050988305205       -0.95744401071008
H           -2.55820060286085       -2.54991142137737       -0.07675235010218
H            1.36810227490740       -2.94289454451285       -0.01056309137802
25
 energy: -43.838754959695 gnorm: 0.002213335166 xtb: 6.6.1 (8d0f1dd)
C            3.24314096095827        1.17755359484008        0.08692647281074
N            2.32291055163926        0.09121487035989        0.03429789521910
C            2.63041999463864       -1.25881293002935        0.03171931623963
N            1.43268859318338       -1.94011300533798        0.00093915518811
C            0.40985640934704       -1.05970916298683       -0.00859334701603
C            0.93396363314414        0.22461838512522        0.01421487130630
C            0.11864900483629        1.38368855803523       -0.00507839730704
O            0.48863765700561        2.56169764601622       -0.00392688373359
N           -1.26778592302469        1.05130047445419       -0.03116272129892
C           -2.22435387908676        2.14867210405811       -0.05006848929737
C           -1.81556439101689       -0.19453667185730       -0.04721594626565
O           -3.01408022757895       -0.38400448247251       -0.07014804271640
N           -0.93290480125537       -1.29574217593876       -0.03719351042171
C           -1.47252447340036       -2.63645381058948       -0.05984298753616
H            3.71794096802355        1.22925847063092        1.07024906691405
H            4.01198796755530        1.05122014284702       -0.67626897325754
H            2.69139182592523        2.10082652927370       -0.08950895947150
H            3.60822882623861       -1.72282000064502        0.04417405728572
H           -1.67063236599437        3.08510922758447       -0.02563465102608
H           -2.83105883608093        2.09358276127245       -0.95407085824598
H           -2.88342009651720        2.07695544716724        0.81504383032526
H           -1.17092407219694       -3.19004516178669        0.83229024855188
H           -1.14679572355568       -3.17006782448062       -0.95579329911308
H           -2.55864175776517       -2.54717881028501       -0.07370735203607
H            1.36660276456705       -2.94255249158668       -0.01469088521635
25
 energy: -43.838754763148 gnorm: 0.001951863215 xtb: 6.6.1 (8d0f1dd)
C            3.24216937747410        1.17713753044428        0.08607161443082
N            2.32223196103557        0.09028534092234        0.03427114985616
C            2.62894637130271       -1.25900891593512        0.03234501353022
N            1.43186060881917       -1.94084559618539        0.00223808114729
C            0.40924884469337       -1.06017062450912       -0.00823414037276
C            0.93381847866999        0.22393943326098        0.01428462055835
C            0.11979034104249        1.38375317053638       -0.00507458913816
O            0.49174108511157        2.56080629223119       -0.00381574414992
N           -1.26698897512060        1.05198517222482       -0.03103545087794
C           -2.22403688245833        2.14934413225722       -0.04943072388735
C           -1.81523294408795       -0.19421452313635       -0.04734099448847
O           -3.01350634488556       -0.38348075278983       -0.07061039526866
N           -0.93292966765482       -1.29589657055620       -0.03723784390023
C           -1.47133290174299       -2.63708507390661       -0.06067207601505
H            3.71748189158459        1.23094306716022        1.06919581533582
H            4.01128612718606        1.05266407084753       -0.67740250018798
H            2.68718274872861        2.09836382600904       -0.09080051537203
H            3.60823659023966       -1.72249283079756        0.04540397284661
H           -1.67104978499233        3.08601714064605       -0.02513990688568
H           -2.83172634527884        2.09506277610579       -0.95271352956209
H           -2.88334726961784        2.07827676726426        0.81545958205562
H           -1.17001266302356       -3.19102488971527        0.83141424087317
H           -1.14423067409911       -3.17015032338890       -0.95650997666801
H           -2.55729640391322       -2.54701090063820       -0.07554453878172
H            1.36542904057635       -2.94353603468304       -0.01217155519669
25
 energy: -43.838755999502 gnorm: 0.001544495834 xtb: 6.6.1 (8d0f1dd)
C            3.24367847159921        1.17690642383198        0.08652377483194
N            2.32240513660277        0.09136719441618        0.03443545766909
C            2.62955466036593       -1.25774048457102        0.03190915731719
N            1.43289181566708       -1.94007631815512        0.00145492346151
C            0.40958729474735       -1.05997673080082       -0.00821499935645
C            0.93357719983772        0.22465140475766        0.01462754600488
C            0.11866049187328        1.38392556667513       -0.00465691272367
O            0.48913691497432        2.56155448230498       -0.00362001198945
N           -1.26814404286390        1.05148951114625       -0.03106222412568
C           -2.22483358130193        2.14931623611639       -0.05008874898096
C           -1.81568530089878       -0.19492313157124       -0.04729237318024
O           -3.01393717052583       -0.38488868827564       -0.07077953046950
N           -0.93282481139179       -1.29625160618309       -0.03701828155578
C           -1.47211247498066       -2.63730002056256       -0.06002446452406
H            3.71984167082816        1.22730504434450        1.06940794167462
H            4.01162139660181        1.04992998304543       -0.67772281044678
H            2.69192073002521        2.10030180321538       -0.08892928159861
H            3.60868943930221       -1.72009153021138        0.04478361664513
H           -1.67152654912766        3.08585890349384       -0.02523201067268
H           -2.83188173188213        2.09592005141153       -0.95389166296044
H           -2.88482082611618        2.07884225383076        0.81435158623574
H           -1.17089030817239       -3.19137276593800        0.83196535583675
H           -1.14636641895161       -3.17085417410515       -0.95601926509434
H           -2.55816126206990       -2.54745211283344       -0.07409639390301
H            1.36735186544678       -2.94277961171404       -0.01386077821386
25
 energy: -43.819755351561 gnorm: 0.125379726516 xtb: 6.6.1 (8d0f1dd)
C            3.23685212976438        1.18285132507324        0.08524159223097
N            2.33525892579707        0.07717292979132        0.03728202216690
C            2.63948458839688       -1.25701846592490        0.03126166122413
N            1.45988722373244       -1.93523707091962        0.00371934042651
C            0.41259116651042       -1.04850862160313       -0.00866282646133
C            0.95134031615861        0.22758613985839        0.01319743541311
C            0.10673907357805        1.39203787646350       -0.00471634781317
O            0.48609429362763        2.56426084699317       -0.00327196995213
N           -1.26559254261268        1.06001151368641       -0.03104667309073
C           -2.23378897763217        2.15309448566404       -0.04966900216718
C           -1.82822148786786       -0.19337603409828       -0.04791321259028
O           -3.01334026420385       -0.37819267034177       -0.07063097089587
N           -0.93132614083402       -1.28734881115914       -0.03767927273792
C           -1.47496388782183       -2.63670593109143       -0.06056422604899
H            3.70868365610423        1.23540579605943        1.06838334274501
H            4.00317849499169        1.05940181539683       -0.67786322174657
H            2.68056499481936        2.10626316228994       -0.09171472502229
H            3.73477708436989       -1.87472877515917        0.05007278325309
H           -1.68682201907129        3.09269179363364       -0.02507565022987
H           -2.83940916657856        2.09670787427003       -0.95250453630618
H           -2.89128489055935        2.07956893632652        0.81442156632023
H           -1.17402222360891       -3.18677975342034        0.83179949551960
H           -1.14906770307564       -3.16620292863763       -0.95676573445019
H           -2.56347257365666       -2.54406850017367       -0.07504878644941
H            1.36253877430135       -2.93708645424087       -0.01251567625154
25
 energy: -43.832409357981 gnorm: 0.043567067534 xtb: 6.6.1 (8d0f1dd)
C            3.24929674155110        1.18227232144726        0.08662779273096
N            2.34002191429464        0.08164496494492        0.03455633052650
C            2.63414855052961       -1.26532387767419        0.03050452687535
N            1.44383649315648       -1.94475597284839        0.00327904426284
C            0.41488950414183       -1.05676762071780       -0.00886104698232
C            0.95027526628031        0.22290808393632        0.01215169992867
C            0.11933141793340        1.38363202790766       -0.00546196554221
O            0.49264603775691        2.56259641626294       -0.00435462615830
N           -1.26059869168570        1.04944183278887       -0.03108332631282
C           -2.22388694584508        2.14491594808061       -0.04938309716506
C           -1.81942034517500       -0.19806341181573       -0.04770233577958
O           -3.01490750567703       -0.38507177650156       -0.07076554822818
N           -0.92850054694849       -1.29349523638881       -0.03755594993813
C           -1.47180251457048       -2.63569538717642       -0.06047128638811
H            3.72444198632734        1.24266493311056        1.06983125203189
H            4.01812282861654        1.06879226750584       -0.67857741053571
H            2.68257565087599        2.09760462287566       -0.08833692509787
H            3.62743370913749       -1.78457037040898        0.04930204404506
H           -1.66945160369985        3.08045648621147       -0.02484121816430
H           -2.83193803074739        2.09221435109298       -0.95262209190207
H           -2.88374554269702        2.07511634006877        0.81527335059018
H           -1.17090148218416       -3.18713933060463        0.83197278409232
H           -1.14584747084879       -3.16679535515736       -0.95660547805762
H           -2.55787037400055       -2.53944149510922       -0.07487532244177
H            1.34852979810705       -2.94534028309425       -0.01226478930384
25
 energy: -43.833254221782 gnorm: 0.018372339395 xtb: 6.6.1 (8d0f1dd)
C            3.24540562974322        1.18102004757825        0.08574836898439
N            2.34881927137200        0.07545021158617        0.03373186122596
C            2.66150535778214       -1.28154662093880        0.03306975290081
N            1.45276446308496       -1.94576516150763        0.00427042234213
C            0.42557314852669       -1.05926230938295       -0.00795256580499
C            0.95425839874649        0.22166286990557        0.01303941770261
C            0.12482431067589        1.38270442659827       -0.00399735234651
O            0.49063554627822        2.56450459093455       -0.00198274503385
N           -1.26367834077250        1.05450419860802       -0.03051991703821
C           -2.23256296232646        2.14923833397308       -0.04961382073253
C           -1.81265257464429       -0.19224877331413       -0.04753323769404
O           -3.01135769778811       -0.38252375481905       -0.07112097644879
N           -0.92260143176003       -1.29008875204593       -0.03717146994919
C           -1.47152971009050       -2.62883319989267       -0.06055982183829
H            3.71315625236429        1.23996206743230        1.07187528509002
H            4.01179242099608        1.06362774128960       -0.67999959863083
H            2.67476720920690        2.09443819490533       -0.09256065155730
H            3.62808251248947       -1.80340947222483        0.04738266831756
H           -1.69222496952732        3.09323654488725       -0.02504876281526
H           -2.84363704777422        2.09553178335287       -0.95166818792593
H           -2.89627380336581        2.07833857866492        0.81295584463977
H           -1.17372310947458       -3.18439514250957        0.83106697279171
H           -1.14854968794240       -3.16360653418343       -0.95625463800620
H           -2.55796623908399       -2.53590483380666       -0.07507433412579
H            1.36185189791304       -2.94483455635406       -0.01234610696138
25
 energy: -43.833530467317 gnorm: 0.009262483703 xtb: 6.6.1 (8d0f1dd)
C            3.24275095721671        1.18340236778448        0.08694719419584
N            2.34243615967716        0.07942977574540        0.03309803284512
C            2.66220102137135       -1.28091271127286        0.03283097472472
N            1.44553473662738       -1.94071438125494        0.00318077027240
C            0.41923765744579       -1.05787171117106       -0.00893272368474
C            0.94674140960605        0.22386503147172        0.01225442523590
C            0.12063815401231        1.38223920229254       -0.00635596954281
O            0.48033383661035        2.56484816574143       -0.00580741055882
N           -1.26885945102960        1.05090809107146       -0.03169359846914
C           -2.22577092797489        2.15067956296279       -0.04948962770971
C           -1.81823524929404       -0.19400559218533       -0.04775461653773
O           -3.01757541708880       -0.38414875655456       -0.07027093879731
N           -0.92935477677894       -1.29221002097851       -0.03772008528208
C           -1.47314668934380       -2.63347946036817       -0.06028248071872
H            3.71670878000739        1.23824235259792        1.07013433241870
H            4.00878579144438        1.06563778994289       -0.67889091880818
H            2.68198174610069        2.10348273643294       -0.08696342837226
H            3.64195792973606       -1.79904683342327        0.04914085686387
H           -1.66798298128954        3.08456869945650       -0.02520799817968
H           -2.83410215087414        2.09938275965147       -0.95328685608515
H           -2.88477535395610        2.08241557255799        0.81663002426705
H           -1.17214849887457       -3.18862562166070        0.83120814905492
H           -1.14757802547500       -3.16866759105752       -0.95546186961286
H           -2.56043816463221       -2.54756726111150       -0.07456550512334
H            1.35733835138518       -2.94005168793459       -0.01300432531011
25
 energy: -43.833607343734 gnorm: 0.006147900836 xtb: 6.6.1 (8d0f1dd)
C            3.24689411372156        1.18138961313683        0.08560141062515
N            2.34131557729801        0.08034323954948        0.03341205598601
C            2.65652746919107       -1.27986546384368        0.03306087154604
N            1.44120564185741       -1.94057323872043        0.00420094724427
C            0.41818207206669       -1.05651429523821       -0.00805272566179
C            0.94730116561254        0.22519571571444        0.01366082764542
C            0.12479213475506        1.38460500773798       -0.00350832646736
O            0.48777178146635        2.56511920017557       -0.00156939147197
N           -1.26591804669939        1.05253353750400       -0.03041126998219
C           -2.22934052114143        2.14570295113912       -0.04950566340231
C           -1.81541661592598       -0.19246045075108       -0.04763486384784
O           -3.01378662614593       -0.38302968455045       -0.07151934379237
N           -0.92845844105692       -1.29047633622575       -0.03731196507694
C           -1.47277739669502       -2.63050187308695       -0.06088498113589
H            3.72125320740529        1.24170958696464        1.06873957790196
H            4.01585628339017        1.06414575977385       -0.67830758593762
H            2.68499040390746        2.09946074701529       -0.09227769193116
H            3.63987649185261       -1.80099526602882        0.04824373003730
H           -1.68143092479547        3.08474815214338       -0.02427342605039
H           -2.83628574632197        2.08794630555016       -0.95348897315419