25
 energy: -42.498263705721 xtb: 6.6.1 (8d0f1dd)
C            3.17664731102647        1.23415018892120        0.08222427636685
N            2.24952703331072        0.13276500166610        0.03192969339075
C            2.59158562134293       -1.16610076882215        0.02618604222706
N            1.40262365877704       -1.84272157601581        0.00149148388890
C            0.34447029083262       -0.98780159344865       -0.00761774078851
C            0.86944112833790        0.28620469576782        0.01472662664862
C            0.02596599552855        1.44893425263144       -0.00417700808484
O            0.37030776431217        2.61329173298431       -0.00087219771891
N           -1.33384796382498        1.09278434442430       -0.03228445682482
C           -2.31045571855774        2.17293972498736       -0.04924054560694
C           -1.87888294747040       -0.17523010181010       -0.05002548408990
O           -3.07507386621403       -0.35846638142965       -0.07530116549014
N           -0.98941726094325       -1.24575738487698       -0.03837940387578
C           -1.50799896594438       -2.59747869130088       -0.06162783945623
H            3.65439342175003        1.28581742624113        1.06247243703359
H            3.95018093046461        1.09824744741311       -0.67198581885528
H            2.64005458021745        2.16322528984018       -0.09985360461499
H            4.96951666608029       -2.84431272809899        0.07104807323759
H           -1.76876269675579        3.11483129486669       -0.02395504373397
H           -2.91762643091285        2.11058188405686       -0.95178319989208
H           -2.96816121379595        2.09105914788023        0.81549968740115
H           -1.19625329950502       -3.14374024630807        0.82996765092315
H           -1.17155479349150       -3.12291047887787       -0.95685069071818
H           -2.59471190920868       -2.52435092517607       -0.07653073917573
H            1.35249558945298       -2.84762689429072       -0.01088393561225
