      -----------------------------------------------------------      
     |                   =====================                   |     
     |                           x T B                           |     
     |                   =====================                   |     
     |                         S. Grimme                         |     
     |          Mulliken Center for Theoretical Chemistry        |     
     |                    University of Bonn                     |     
      -----------------------------------------------------------      

   * xtb version 6.6.1 (8d0f1dd) compiled by 'conda@1efc2f54142f' on 2023-08-01

   xtb is free software: you can redistribute it and/or modify it under
   the terms of the GNU Lesser General Public License as published by
   the Free Software Foundation, either version 3 of the License, or
   (at your option) any later version.
   
   xtb is distributed in the hope that it will be useful,
   but WITHOUT ANY WARRANTY; without even the implied warranty of
   MERCHANTABILITY or FITNESS FOR A PARTICULAR PURPOSE.  See the
   GNU Lesser General Public License for more details.
   
   Cite this work as:
   * C. Bannwarth, E. Caldeweyher, S. Ehlert, A. Hansen, P. Pracht,
     J. Seibert, S. Spicher, S. Grimme, WIREs Comput. Mol. Sci., 2020, 11,
     e01493. DOI: 10.1002/wcms.1493
   
   for GFN2-xTB:
   * C. Bannwarth, S. Ehlert and S. Grimme., J. Chem. Theory Comput., 2019,
     15, 1652-1671. DOI: 10.1021/acs.jctc.8b01176
   for GFN1-xTB:
   * S. Grimme, C. Bannwarth, P. Shushkov, J. Chem. Theory Comput., 2017,
     13, 1989-2009. DOI: 10.1021/acs.jctc.7b00118
   for GFN0-xTB:
   * P. Pracht, E. Caldeweyher, S. Ehlert, S. Grimme, ChemRxiv, 2019, preprint.
     DOI: 10.26434/chemrxiv.8326202.v1
   for GFN-FF:
   * S. Spicher and S. Grimme, Angew. Chem. Int. Ed., 2020, 59, 15665-15673.
     DOI: 10.1002/anie.202004239
   
   for ALPB and GBSA implicit solvation:
   * S. Ehlert, M. Stahn, S. Spicher, S. Grimme, J. Chem. Theory Comput.,
     2021, 17, 4250-4261. DOI: 10.1021/acs.jctc.1c00471
   
   for DFT-D4:
   * E. Caldeweyher, C. Bannwarth and S. Grimme, J. Chem. Phys., 2017,
     147, 034112. DOI: 10.1063/1.4993215
   * E. Caldeweyher, S. Ehlert, A. Hansen, H. Neugebauer, S. Spicher,
     C. Bannwarth and S. Grimme, J. Chem. Phys., 2019, 150, 154122.
     DOI: 10.1063/1.5090222
   * E. Caldeweyher, J.-M. Mewes, S. Ehlert and S. Grimme, Phys. Chem. Chem. Phys.
     2020, 22, 8499-8512. DOI: 10.1039/D0CP00502A
   
   for sTDA-xTB:
   * S. Grimme and C. Bannwarth, J. Chem. Phys., 2016, 145, 054103.
     DOI: 10.1063/1.4959605
   
   in the mass-spec context:
   * V. Asgeirsson, C. Bauer and S. Grimme, Chem. Sci., 2017, 8, 4879.
     DOI: 10.1039/c7sc00601b
   * J. Koopman and S. Grimme, ACS Omega 2019, 4, 12, 15120-15133.
     DOI: 10.1021/acsomega.9b02011
   
   for metadynamics refer to:
   * S. Grimme, J. Chem. Theory Comput., 2019, 155, 2847-2862
     DOI: 10.1021/acs.jctc.9b00143
   
   for SPH calculations refer to:
   * S. Spicher and S. Grimme, J. Chem. Theory Comput., 2021, 17, 1701-1714
     DOI: 10.1021/acs.jctc.0c01306
   
   with help from (in alphabetical order)
   P. Atkinson, C. Bannwarth, F. Bohle, G. Brandenburg, E. Caldeweyher
   M. Checinski, S. Dohm, S. Ehlert, S. Ehrlich, I. Gerasimov, C. Hölzer
   A. Katbashev, J. Koopman, C. Lavigne, S. Lehtola, F. März, M. Müller,
   F. Musil, H. Neugebauer, J. Pisarek, C. Plett, P. Pracht, F. Pultar,
   J. Seibert, P. Shushkov, S. Spicher, M. Stahn, M. Steiner, T. Strunk,
   J. Stückrath, T. Rose, and J. Unsleber
   
 * started run on 2024/04/06 at 11:14:53.291     

           -------------------------------------------------
          |                Calculation Setup                |
           -------------------------------------------------

          program call               : xtb xtbopt.xyz --opt crude --input .xc2 --gfn2
          hostname                   : n-62-30-23
          coordinate file            : xtbopt.xyz
          omp threads                :                     1

   ID    Z sym.   atoms
    1    7 N      1, 17
    2    6 C      2-6, 8, 9, 11-16, 18-23, 25, 26, 28-33
    3    8 O      7, 10, 24, 27
    4    1 H      34-72
########################################################################
[WARNING] Please study the warnings concerning your input carefully
-1- readin_getIntValue: could not parse ''
########################################################################

           -------------------------------------------------
          |                 G F N 2 - x T B                 |
           -------------------------------------------------

        Reference                      10.1021/acs.jctc.8b01176
      * Hamiltonian:
        H0-scaling (s, p, d)           1.850000    2.230000    2.230000
        zeta-weighting                 0.500000
      * Dispersion:
        s8                             2.700000
        a1                             0.520000
        a2                             5.000000
        s9                             5.000000
      * Repulsion:
        kExp                           1.500000    1.000000
        rExp                           1.000000
      * Coulomb:
        alpha                          2.000000
        third order                    shell-resolved
        anisotropic                    true
        a3                             3.000000
        a5                             4.000000
        cn-shift                       1.200000
        cn-exp                         4.000000
        max-rad                        5.000000

q/qsh data taken from xtbrestart
CAMM data taken from xtbrestart

          ...................................................
          :                      SETUP                      :
          :.................................................:
          :  # basis functions                 171          :
          :  # atomic orbitals                 171          :
          :  # shells                          105          :
          :  # electrons                       180          :
          :  max. iterations                   250          :
          :  Hamiltonian                  GFN2-xTB          :
          :  restarted?                       true          :
          :  GBSA solvation                  false          :
          :  PC potential                    false          :
          :  electronic temp.         5000.0000000     K    :
          :  accuracy                    1.0000000          :
          :  -> integral cutoff          0.2500000E+02      :
          :  -> integral neglect         0.1000000E-07      :
          :  -> SCF convergence          0.1000000E-05 Eh   :
          :  -> wf. convergence          0.1000000E-03 e    :
          :  Broyden damping             0.4000000          :
          ...................................................

 iter      E             dE          RMSdq      gap      omega  full diag
   1   -100.4660926 -0.100466E+03  0.943E-05    1.03       0.0  T
   2   -100.4660926  0.753943E-08  0.251E-04    1.03      47.0  T
   3   -100.4660926 -0.828841E-08  0.482E-05    1.03     244.3  T

   *** convergence criteria satisfied after 3 iterations ***

         #    Occupation            Energy/Eh            Energy/eV
      -------------------------------------------------------------
         1        2.0000           -0.8191033             -22.2889
       ...           ...                  ...                  ...
        84        1.9929           -0.5078275             -13.8187
        85        1.9811           -0.4921398             -13.3918
        86        1.9752           -0.4877941             -13.2736
        87        1.9329           -0.4716923             -12.8354
        88        1.8734           -0.4611434             -12.5484
        89        1.7379           -0.4484324             -12.2025
        90        1.5673           -0.4388576             -11.9419 (HOMO)
        91        0.4978           -0.4009890             -10.9115 (LUMO)
        92        0.3332           -0.3929851             -10.6937
        93        0.1093           -0.3733492             -10.1593
        94        0.0133           -0.3391516              -9.2288
        95        0.0087           -0.3324991              -9.0478
       ...           ...                  ...                  ...
       171                          1.2723371              34.6221
      -------------------------------------------------------------
                  HL-Gap            0.0378685 Eh            1.0305 eV
             Fermi-level           -0.4184786 Eh          -11.3874 eV

 SCC (total)                   0 d,  0 h,  0 min,  0.119 sec
 SCC setup                      ...        0 min,  0.001 sec (  0.808%)
 Dispersion                     ...        0 min,  0.002 sec (  1.459%)
 classical contributions        ...        0 min,  0.000 sec (  0.373%)
 integral evaluation            ...        0 min,  0.018 sec ( 15.338%)
 iterations                     ...        0 min,  0.028 sec ( 23.297%)
 molecular gradient             ...        0 min,  0.069 sec ( 58.175%)
 printout                       ...        0 min,  0.001 sec (  0.538%)

         :::::::::::::::::::::::::::::::::::::::::::::::::::::
         ::                     SUMMARY                     ::
         :::::::::::::::::::::::::::::::::::::::::::::::::::::
         :: total energy             -99.008556074332 Eh    ::
         :: gradient norm              0.780020512281 Eh/a0 ::
         :: HOMO-LUMO gap              1.030455426510 eV    ::
         ::.................................................::
         :: SCC energy              -100.466092630448 Eh    ::
         :: -> isotropic ES            0.100153502520 Eh    ::
         :: -> anisotropic ES         -0.000502510350 Eh    ::
         :: -> anisotropic XC          0.045788867157 Eh    ::
         :: -> dispersion             -0.075254543929 Eh    ::
         :: repulsion energy           1.456150617218 Eh    ::
         :: add. restraining           0.000000000000 Eh    ::
         :: total charge               1.000000000000 e     ::
         :::::::::::::::::::::::::::::::::::::::::::::::::::::

      ----------------------------------------------------------- 
     |                   =====================                   |
     |                        A N C O P T                        |
     |                   =====================                   |
     |               Approximate Normal Coordinate               |
     |                Rational Function Optimizer                |
      ----------------------------------------------------------- 

          ...................................................
          :                      SETUP                      :
          :.................................................:
          :   optimization level             crude          :
          :   max. optcycles                   200          :
          :   ANC micro-cycles                  20          :
          :   degrees of freedom               210          :
          :.................................................:
          :   RF solver                   davidson          :
          :   write xtbopt.log                true          :
          :   linear?                        false          :
          :   energy convergence         0.5000000E-03 Eh   :
          :   grad. convergence          0.1000000E-01 Eh/α :
          :   maxmium RF displ.          1.0000000          :
          :   Hlow (freq-cutoff)         0.1000000E-01      :
          :   Hmax (freq-cutoff)         5.0000000          :
          :   S6 in model hess.         20.0000000          :
          ...................................................

generating ANC from model Hessian ...
Using Lindh-Hessian (1995)
 Shifting diagonal of input Hessian by    9.9796296650919002E-003
 Lowest  eigenvalues of input Hessian
    0.000000    0.000000    0.000000    0.000000    0.000000    0.000000
    0.010000    0.010029    0.010116    0.010178    0.010309    0.010480
    0.010605    0.010803    0.010906    0.011354    0.011496    0.011828
 Highest eigenvalues
    2.002733    2.040150    2.040993    2.110335    2.180727    2.236620


........................................................................
.............................. CYCLE    1 ..............................
........................................................................

 iter      E             dE          RMSdq      gap      omega  full diag
   1   -100.4660926 -0.100466E+03  0.485E-05    1.03       0.0  T
   2   -100.4660926  0.316697E-08  0.155E-04    1.03      76.2  T
   3   -100.4660926 -0.335304E-08  0.235E-05    1.03     501.6  T
     SCC iter.                  ...        0 min,  0.026 sec
     gradient                   ...        0 min,  0.069 sec
 * total energy  :   -99.0085561 Eh     change       -0.2040963E-09 Eh
   gradient norm :     0.7800209 Eh/α   predicted     0.0000000E+00 (-100.00%)
   displ. norm   :     0.3622050 α      lambda       -0.2639777E+00
   maximum displ.:     0.2860327 α      in ANC's #210, #204, #146, ...

........................................................................
.............................. CYCLE    2 ..............................
........................................................................

 iter      E             dE          RMSdq      gap      omega  full diag
   1   -100.4527999 -0.100453E+03  0.353E-01    0.93       0.0  T
   2   -100.4281467  0.246531E-01  0.457E-01    0.81       1.0  T
   3   -100.4383480 -0.102013E-01  0.389E-01    1.06       1.0  T
   4   -100.4482239 -0.987595E-02  0.267E-01    0.83       1.0  T
   5   -100.4551007 -0.687681E-02  0.876E-02    0.94       1.0  T
   6   -100.4559458 -0.845066E-03  0.398E-02    0.97       1.0  T
   7   -100.4561142 -0.168363E-03  0.130E-02    0.95       1.0  T
   8   -100.4561115  0.262500E-05  0.956E-03    0.95       1.2  T
   9   -100.4561179 -0.636307E-05  0.227E-03    0.94       5.2  T
  10   -100.4561182 -0.261343E-06  0.726E-04    0.94      16.2  T
  11   -100.4561182  0.461135E-08  0.541E-04    0.94      21.8  T
     SCC iter.                  ...        0 min,  0.089 sec
     gradient                   ...        0 min,  0.069 sec
 * total energy  :   -99.1230844 Eh     change       -0.1145283E+00 Eh
   gradient norm :     0.0848745 Eh/α   predicted    -0.1493049E+00 (  30.37%)
   displ. norm   :     0.2067411 α      lambda       -0.6169575E-02
   maximum displ.:     0.0895985 α      in ANC's #51, #55, #59, ...

........................................................................
.............................. CYCLE    3 ..............................
........................................................................

 iter      E             dE          RMSdq      gap      omega  full diag
   1   -100.4569494 -0.100457E+03  0.165E-01    0.93       0.0  T
   2   -100.4523790  0.457044E-02  0.197E-01    0.84       1.0  T
   3   -100.4528393 -0.460298E-03  0.196E-01    0.99       1.0  T
   4   -100.4562130 -0.337376E-02  0.112E-01    0.90       1.0  T
   5   -100.4574370 -0.122396E-02  0.294E-02    0.92       1.0  T
   6   -100.4575292 -0.922432E-04  0.121E-02    0.92       1.0  T
   7   -100.4575428 -0.135845E-04  0.565E-03    0.91       2.1  T
   8   -100.4575441 -0.124583E-05  0.178E-03    0.92       6.6  T
   9   -100.4575442 -0.171142E-06  0.834E-04    0.92      14.1  T
  10   -100.4575443 -0.243436E-07  0.441E-04    0.92      26.8  T
     SCC iter.                  ...        0 min,  0.081 sec
     gradient                   ...        0 min,  0.071 sec
 * total energy  :   -99.1286291 Eh     change       -0.5544732E-02 Eh
   gradient norm :     0.0687139 Eh/α   predicted    -0.3216641E-02 ( -41.99%)
   displ. norm   :     0.5772392 α      lambda       -0.1607102E-01
   maximum displ.:     0.2557167 α      in ANC's #51, #55, #59, ...

........................................................................
.............................. CYCLE    4 ..............................
........................................................................

 iter      E             dE          RMSdq      gap      omega  full diag
   1   -100.4586630 -0.100459E+03  0.676E-01    0.86       0.0  T
   2   -100.4197793  0.388837E-01  0.607E-01    0.67       1.0  T
   3   -100.3712998  0.484796E-01  0.900E-01    0.88       1.0  T
   4   -100.4460409 -0.747411E-01  0.440E-01    0.70       1.0  T
   5   -100.4616419 -0.156011E-01  0.157E-01    0.85       1.0  T
   6   -100.4646383 -0.299636E-02  0.712E-02    0.86       1.0  T
   7   -100.4650928 -0.454532E-03  0.343E-02    0.82       1.0  T
   8   -100.4651185 -0.257013E-04  0.163E-02    0.83       1.0  T
   9   -100.4651355 -0.169611E-04  0.636E-03    0.83       1.9  T
  10   -100.4651375 -0.196381E-05  0.283E-03    0.83       4.2  T
  11   -100.4651375 -0.712122E-07  0.163E-03    0.83       7.2  T
  12   -100.4651377 -0.149518E-06  0.447E-04    0.83      26.4  T
  13   -100.4651377 -0.240158E-07  0.234E-04    0.83      50.5  T
     SCC iter.                  ...        0 min,  0.104 sec
     gradient                   ...        0 min,  0.069 sec
 * total energy  :   -99.1387629 Eh     change       -0.1013375E-01 Eh
   gradient norm :     0.0615784 Eh/α   predicted    -0.1071305E-01 (   5.72%)
   displ. norm   :     0.1426218 α      lambda       -0.4763988E-02
   maximum displ.:     0.0518049 α      in ANC's #210, #35, #51, ...

........................................................................
.............................. CYCLE    5 ..............................
........................................................................

 iter      E             dE          RMSdq      gap      omega  full diag
   1   -100.4713378 -0.100471E+03  0.106E-01    0.79       0.0  T
   2   -100.4693067  0.203109E-02  0.147E-01    0.73       1.0  T
   3   -100.4709733 -0.166659E-02  0.799E-02    0.80       1.0  T
   4   -100.4711879 -0.214625E-03  0.500E-02    0.77       1.0  T
   5   -100.4714673 -0.279430E-03  0.231E-02    0.78       1.0  T
   6   -100.4715311 -0.638127E-04  0.572E-03    0.78       2.1  T
   7   -100.4715330 -0.183819E-05  0.283E-03    0.78       4.2  T
   8   -100.4715332 -0.260372E-06  0.155E-03    0.78       7.6  T
   9   -100.4715334 -0.170605E-06  0.810E-04    0.78      14.6  T
  10   -100.4715334 -0.256258E-07  0.441E-04    0.78      26.7  T
     SCC iter.                  ...        0 min,  0.081 sec
     gradient                   ...        0 min,  0.069 sec
 * total energy  :   -99.1425145 Eh     change       -0.3751609E-02 Eh
   gradient norm :     0.0438910 Eh/α   predicted    -0.2430450E-02 ( -35.22%)
   displ. norm   :     0.4140177 α      lambda       -0.1162596E-01
   maximum displ.:     0.2405146 α      in ANC's #210, #35, #38, ...

........................................................................
.............................. CYCLE    6 ..............................
........................................................................

 iter      E             dE          RMSdq      gap      omega  full diag
   1   -100.5017661 -0.100502E+03  0.602E-01    0.50       0.0  T
   2   -100.4309152  0.708509E-01  0.833E-01    0.58       1.0  T
   3   -100.4800345 -0.491193E-01  0.564E-01    0.55       1.0  T
   4   -100.5074624 -0.274279E-01  0.820E-02    0.50       1.0  T
   5   -100.5076623 -0.199839E-03  0.543E-02    0.49       1.0  T
   6   -100.5079158 -0.253553E-03  0.281E-02    0.49       1.0  T
   7   -100.5079457 -0.299164E-04  0.180E-02    0.49       1.0  T
   8   -100.5079414  0.436022E-05  0.141E-02    0.49       1.0  T
   9   -100.5079624 -0.210097E-04  0.241E-03    0.49       4.9  T
  10   -100.5079628 -0.377450E-06  0.149E-03    0.49       7.9  T
  11   -100.5079630 -0.199868E-06  0.553E-04    0.49      21.3  T
  12   -100.5079630 -0.304111E-07  0.262E-04    0.49      44.9  T
     SCC iter.                  ...        0 min,  0.097 sec
     gradient                   ...        0 min,  0.069 sec
 * total energy  :   -99.1500387 Eh     change       -0.7524245E-02 Eh
   gradient norm :     0.0608093 Eh/α   predicted    -0.6809379E-02 (  -9.50%)
   displ. norm   :     0.4190795 α      lambda       -0.1109224E-01
   maximum displ.:     0.2290766 α      in ANC's #210, #43, #42, ...

........................................................................
.............................. CYCLE    7 ..............................
........................................................................

 iter      E             dE          RMSdq      gap      omega  full diag
   1   -100.5253728 -0.100525E+03  0.352E-01    0.30       0.0  T
   2   -100.5120360  0.133368E-01  0.422E-01    0.42       1.0  T
   3   -100.5172776 -0.524152E-02  0.329E-01    0.32       1.0  T
   4   -100.5202896 -0.301207E-02  0.252E-01    0.37       1.0  T
   5   -100.5255424 -0.525280E-02  0.112E-01    0.31       1.0  T
   6   -100.5270560 -0.151354E-02  0.375E-02    0.32       1.0  T
   7   -100.5272226 -0.166626E-03  0.898E-03    0.31       1.3  T
   8   -100.5272229 -0.287941E-06  0.645E-03    0.31       1.8  T
   9   -100.5272250 -0.214730E-05  0.291E-03    0.31       4.0  T
  10   -100.5272258 -0.740483E-06  0.703E-04    0.31      16.8  T
  11   -100.5272258 -0.208404E-07  0.296E-04    0.31      39.9  T
     SCC iter.                  ...        0 min,  0.089 sec
     gradient                   ...        0 min,  0.069 sec
 * total energy  :   -99.1573841 Eh     change       -0.7345366E-02 Eh
   gradient norm :     0.0621652 Eh/α   predicted    -0.6520167E-02 ( -11.23%)
   displ. norm   :     0.4448016 α      lambda       -0.8055456E-02
   maximum displ.:     0.2024146 α      in ANC's #210, #43, #42, ...

........................................................................
.............................. CYCLE    8 ..............................
........................................................................

 iter      E             dE          RMSdq      gap      omega  full diag
   1   -100.5292316 -0.100529E+03  0.243E-01    0.24       0.0  T
   2   -100.5267828  0.244881E-02  0.225E-01    0.20       1.0  T
   3   -100.5220386  0.474421E-02  0.275E-01    0.36       1.0  T
   4   -100.5268610 -0.482238E-02  0.173E-01    0.20       1.0  T
   5   -100.5296919 -0.283087E-02  0.587E-02    0.23       1.0  T
   6   -100.5300521 -0.360204E-03  0.958E-03    0.23       1.2  T
   7   -100.5300518  0.305931E-06  0.908E-03    0.23       1.3  T
   8   -100.5300584 -0.661897E-05  0.427E-03    0.23       2.8  T
   9   -100.5300599 -0.153440E-05  0.146E-03    0.23       8.1  T
  10   -100.5300601 -0.199597E-06  0.430E-04    0.23      27.4  T
  11   -100.5300601 -0.686006E-08  0.170E-04    0.23      69.2  T
     SCC iter.                  ...        0 min,  0.089 sec
     gradient                   ...        0 min,  0.069 sec
 * total energy  :   -99.1626414 Eh     change       -0.5257250E-02 Eh
   gradient norm :     0.0390861 Eh/α   predicted    -0.4824606E-02 (  -8.23%)
   displ. norm   :     0.4363925 α      lambda       -0.6094472E-02
   maximum displ.:     0.1594380 α      in ANC's #35, #210, #43, ...

........................................................................
.............................. CYCLE    9 ..............................
........................................................................

 iter      E             dE          RMSdq      gap      omega  full diag
   1   -100.5336040 -0.100534E+03  0.149E-01    0.19       0.0  T
   2   -100.5331735  0.430532E-03  0.112E-01    0.17       1.0  T
   3   -100.5309120  0.226141E-02  0.169E-01    0.26       1.0  T
   4   -100.5319451 -0.103303E-02  0.125E-01    0.16       1.0  T
   5   -100.5336819 -0.173684E-02  0.324E-02    0.20       1.0  T
   6   -100.5337673 -0.853810E-04  0.162E-02    0.19       1.0  T
   7   -100.5337960 -0.287628E-04  0.649E-03    0.19       1.8  T
   8   -100.5338002 -0.411126E-05  0.220E-03    0.19       5.4  T
   9   -100.5338003 -0.921529E-07  0.130E-03    0.19       9.1  T
  10   -100.5338004 -0.164369E-06  0.356E-04    0.19      33.1  T
  11   -100.5338004 -0.782894E-08  0.950E-05    0.19     124.1  T
     SCC iter.                  ...        0 min,  0.089 sec
     gradient                   ...        0 min,  0.069 sec
 * total energy  :   -99.1667928 Eh     change       -0.4151414E-02 Eh
   gradient norm :     0.0364997 Eh/α   predicted    -0.3627576E-02 ( -12.62%)
   displ. norm   :     0.4512019 α      lambda       -0.4792604E-02
   maximum displ.:     0.1391017 α      in ANC's #210, #35, #12, ...

........................................................................
.............................. CYCLE   10 ..............................
........................................................................

 iter      E             dE          RMSdq      gap      omega  full diag
   1   -100.5411256 -0.100541E+03  0.110E-01    0.16       0.0  T
   2   -100.5405381  0.587536E-03  0.103E-01    0.18       1.0  T
   3   -100.5401401  0.397916E-03  0.110E-01    0.15       1.0  T
   4   -100.5402910 -0.150871E-03  0.917E-02    0.20       1.0  T
   5   -100.5410896 -0.798555E-03  0.346E-02    0.16       1.0  T
   6   -100.5412340 -0.144418E-03  0.905E-03    0.17       1.3  T
   7   -100.5412433 -0.934560E-05  0.243E-03    0.16       4.8  T
   8   -100.5412435 -0.158262E-06  0.103E-03    0.16      11.5  T
   9   -100.5412435 -0.204876E-07  0.400E-04    0.16      29.5  T
  10   -100.5412435 -0.110104E-07  0.200E-04    0.16      58.9  T
     SCC iter.                  ...        0 min,  0.081 sec
     gradient                   ...        0 min,  0.069 sec
 * total energy  :   -99.1701791 Eh     change       -0.3386285E-02 Eh
   gradient norm :     0.0403527 Eh/α   predicted    -0.2884162E-02 ( -14.83%)
   displ. norm   :     0.4837470 α      lambda       -0.5815935E-02
   maximum displ.:     0.1475728 α      in ANC's #26, #12, #20, ...

........................................................................
.............................. CYCLE   11 ..............................
........................................................................

 iter      E             dE          RMSdq      gap      omega  full diag
   1   -100.5396444 -0.100540E+03  0.180E-01    0.19       0.0  T
   2   -100.5350960  0.454839E-02  0.222E-01    0.15       1.0  T
   3   -100.5350789  0.170944E-04  0.227E-01    0.29       1.0  T
   4   -100.5386017 -0.352278E-02  0.105E-01    0.16       1.0  T
   5   -100.5397010 -0.109929E-02  0.530E-02    0.18       1.0  T
   6   -100.5400115 -0.310575E-03  0.381E-03    0.17       3.1  T
   7   -100.5400112  0.345961E-06  0.293E-03    0.17       4.0  T
   8   -100.5400115 -0.318066E-06  0.200E-03    0.17       5.9  T
   9   -100.5400117 -0.172921E-06  0.101E-03    0.17      11.7  T
  10   -100.5400118 -0.974097E-07  0.302E-04    0.17      39.0  T
  11   -100.5400118 -0.606651E-08  0.115E-04    0.17     102.9  T
     SCC iter.                  ...        0 min,  0.089 sec
     gradient                   ...        0 min,  0.069 sec
 * total energy  :   -99.1728779 Eh     change       -0.2698865E-02 Eh
   gradient norm :     0.0423371 Eh/α   predicted    -0.3588464E-02 (  32.96%)
   displ. norm   :     0.2882565 α      lambda       -0.3644660E-02
   maximum displ.:     0.0871655 α      in ANC's #8, #210, #10, ...

........................................................................
.............................. CYCLE   12 ..............................
........................................................................

 iter      E             dE          RMSdq      gap      omega  full diag
   1   -100.5472079 -0.100547E+03  0.144E-01    0.21       0.0  T
   2   -100.5354720  0.117359E-01  0.325E-01    0.17       1.0  T
   3   -100.5472726 -0.118006E-01  0.103E-01    0.22       1.0  T
   4   -100.5453343  0.193830E-02  0.153E-01    0.15       1.0  T
   5   -100.5480709 -0.273656E-02  0.151E-02    0.18       1.0  T
   6   -100.5480771 -0.624189E-05  0.870E-03    0.17       1.4  T
   7   -100.5480843 -0.724390E-05  0.434E-03    0.17       2.7  T
   8   -100.5480851 -0.768751E-06  0.220E-03    0.17       5.4  T
   9   -100.5480856 -0.479735E-06  0.702E-04    0.17      16.8  T
  10   -100.5480856 -0.288480E-07  0.223E-04    0.17      52.9  T
     SCC iter.                  ...        0 min,  0.081 sec
     gradient                   ...        0 min,  0.069 sec
 * total energy  :   -99.1754051 Eh     change       -0.2527139E-02 Eh
   gradient norm :     0.0254639 Eh/α   predicted    -0.1973770E-02 ( -21.90%)
   displ. norm   :     0.3510752 α      lambda       -0.2615730E-02
   maximum displ.:     0.1190808 α      in ANC's #10, #210, #8, ...

........................................................................
.............................. CYCLE   13 ..............................
........................................................................

 iter      E             dE          RMSdq      gap      omega  full diag
   1   -100.5523349 -0.100552E+03  0.207E-01    0.25       0.0  T
   2   -100.5235740  0.287609E-01  0.512E-01    0.24       1.0  T
   3   -100.5521204 -0.285464E-01  0.168E-01    0.27       1.0  T
   4   -100.5506926  0.142781E-02  0.179E-01    0.17       1.0  T
   5   -100.5543991 -0.370654E-02  0.296E-02    0.20       1.0  T
   6   -100.5544434 -0.442612E-04  0.104E-02    0.19       1.1  T
   7   -100.5544526 -0.921305E-05  0.592E-03    0.19       2.0  T
   8   -100.5544540 -0.137927E-05  0.311E-03    0.19       3.8  T
   9   -100.5544549 -0.944262E-06  0.918E-04    0.19      12.8  T
  10   -100.5544550 -0.601606E-07  0.234E-04    0.19      50.3  T
     SCC iter.                  ...        0 min,  0.081 sec
     gradient                   ...        0 min,  0.069 sec
 * total energy  :   -99.1771755 Eh     change       -0.1770460E-02 Eh
   gradient norm :     0.0186115 Eh/α   predicted    -0.1469065E-02 ( -17.02%)
   displ. norm   :     0.3611239 α      lambda       -0.1672467E-02
   maximum displ.:     0.1317921 α      in ANC's #8, #10, #4, ...

........................................................................
.............................. CYCLE   14 ..............................
........................................................................

 iter      E             dE          RMSdq      gap      omega  full diag
   1   -100.5526276 -0.100553E+03  0.161E-01    0.25       0.0  T
   2   -100.5417064  0.109212E-01  0.320E-01    0.15       1.0  T
   3   -100.5510320 -0.932557E-02  0.168E-01    0.29       1.0  T
   4   -100.5515217 -0.489684E-03  0.127E-01    0.19       1.0  T
   5   -100.5532696 -0.174796E-02  0.365E-02    0.22       1.0  T
   6   -100.5533911 -0.121449E-03  0.548E-03    0.21       2.1  T
   7   -100.5533930 -0.190222E-05  0.293E-03    0.21       4.0  T
   8   -100.5533934 -0.430211E-06  0.115E-03    0.21      10.2  T
   9   -100.5533934 -0.949339E-08  0.861E-04    0.21      13.7  T
  10   -100.5533935 -0.733995E-07  0.226E-04    0.21      52.2  T
     SCC iter.                  ...        0 min,  0.081 sec
     gradient                   ...        0 min,  0.069 sec
 * total energy  :   -99.1782266 Eh     change       -0.1051069E-02 Eh
   gradient norm :     0.0133779 Eh/α   predicted    -0.9452897E-03 ( -10.06%)
   displ. norm   :     0.2487460 α      lambda       -0.6916340E-03
   maximum displ.:     0.1064728 α      in ANC's #10, #8, #4, ...

........................................................................
.............................. CYCLE   15 ..............................
........................................................................

 iter      E             dE          RMSdq      gap      omega  full diag
   1   -100.5534176 -0.100553E+03  0.146E-01    0.27       0.0  T
   2   -100.5411155  0.123021E-01  0.340E-01    0.16       1.0  T
   3   -100.5525346 -0.114191E-01  0.144E-01    0.30       1.0  T
   4   -100.5529014 -0.366754E-03  0.113E-01    0.22       1.0  T
   5   -100.5542075 -0.130614E-02  0.274E-02    0.24       1.0  T
   6   -100.5542679 -0.603996E-04  0.107E-02    0.23       1.1  T
   7   -100.5542787 -0.107910E-04  0.380E-03    0.23       3.1  T
   8   -100.5542798 -0.105443E-05  0.132E-03    0.23       8.9  T
   9   -100.5542799 -0.107034E-06  0.391E-04    0.23      30.1  T
  10   -100.5542799 -0.873547E-08  0.154E-04    0.23      76.4  T
     SCC iter.                  ...        0 min,  0.081 sec
     gradient                   ...        0 min,  0.069 sec
 * total energy  :   -99.1786799 Eh     change       -0.4532766E-03 Eh
   gradient norm :     0.0131289 Eh/α   predicted    -0.3672172E-03 ( -18.99%)
   displ. norm   :     0.2925594 α      lambda       -0.7609255E-03
   maximum displ.:     0.1138499 α      in ANC's #26, #3, #10, ...

........................................................................
.............................. CYCLE   16 ..............................
........................................................................

 iter      E             dE          RMSdq      gap      omega  full diag
   1   -100.5579402 -0.100558E+03  0.110E-01    0.28       0.0  T
   2   -100.5526679  0.527235E-02  0.236E-01    0.17       1.0  T
   3   -100.5577471 -0.507920E-02  0.867E-02    0.30       1.0  T
   4   -100.5576194  0.127641E-03  0.830E-02    0.23       1.0  T
   5   -100.5582223 -0.602877E-03  0.295E-02    0.26       1.0  T
   6   -100.5583230 -0.100666E-03  0.109E-02    0.25       1.1  T
   7   -100.5583325 -0.950621E-05  0.416E-03    0.25       2.8  T
   8   -100.5583334 -0.881341E-06  0.160E-03    0.25       7.4  T
   9   -100.5583336 -0.205585E-06  0.511E-04    0.25      23.1  T
  10   -100.5583336 -0.289140E-07  0.195E-04    0.25      60.5  T
     SCC iter.                  ...        0 min,  0.081 sec
     gradient                   ...        0 min,  0.069 sec
 * total energy  :   -99.1787659 Eh     change       -0.8605888E-04 Eh
   gradient norm :     0.0190919 Eh/α   predicted    -0.4130305E-03 ( 379.94%)
   displ. norm   :     0.1965045 α      lambda       -0.7966324E-03
   maximum displ.:     0.0800250 α      in ANC's #10, #4, #8, ...

........................................................................
.............................. CYCLE   17 ..............................
........................................................................

 iter      E             dE          RMSdq      gap      omega  full diag
   1   -100.5538906 -0.100554E+03  0.987E-02    0.29       0.0  T
   2   -100.5493209  0.456972E-02  0.211E-01    0.18       1.0  T
   3   -100.5531762 -0.385529E-02  0.112E-01    0.32       1.0  T
   4   -100.5538933 -0.717090E-03  0.606E-02    0.26       1.0  T
   5   -100.5541182 -0.224963E-03  0.287E-02    0.27       1.0  T
   6   -100.5542117 -0.934854E-04  0.746E-03    0.26       1.6  T
   7   -100.5542180 -0.626439E-05  0.180E-03    0.26       6.5  T
   8   -100.5542181 -0.165750E-06  0.731E-04    0.26      16.1  T
   9   -100.5542181 -0.361726E-08  0.385E-04    0.26      30.6  T
     SCC iter.                  ...        0 min,  0.073 sec
     gradient                   ...        0 min,  0.069 sec
 * total energy  :   -99.1791844 Eh     change       -0.4185082E-03 Eh
   gradient norm :     0.0094177 Eh/α   predicted    -0.4136986E-03 (  -1.15%)
   displ. norm   :     0.0892512 α      lambda       -0.2128661E-03
   maximum displ.:     0.0467808 α      in ANC's #3, #12, #20, ...

   *** GEOMETRY OPTIMIZATION CONVERGED AFTER 17 ITERATIONS ***

------------------------------------------------------------------------
 total energy gain   :        -0.1706284 Eh     -107.0709 kcal/mol
 total RMSD          :         0.4644886 a0        0.2458 Å
 total power (kW/mol):       -26.3520405 (step) -147.7787 (real)
------------------------------------------------------------------------

 ANCopt (total)                0 d,  0 h,  0 min,  3.031 sec
 optimizer setup                ...        0 min,  0.000 sec (  0.009%)
 model hessian                  ...        0 min,  0.056 sec (  1.859%)
 ANC generation                 ...        0 min,  0.007 sec (  0.215%)
 coordinate transformation      ...        0 min,  0.001 sec (  0.038%)
 single point calculation       ...        0 min,  2.941 sec ( 97.013%)
 optimization log               ...        0 min,  0.007 sec (  0.216%)
 hessian update                 ...        0 min,  0.001 sec (  0.041%)
 rational function              ...        0 min,  0.009 sec (  0.307%)

================
 final structure:
================
72
 xtb: 6.6.1 (8d0f1dd)
N           -1.73805656963286        2.86162182888654        2.14451518673628
C           -1.72865028804949        2.09546111968291        1.15799806909491
C           -2.88020169301376        1.91034086411103        0.20809382169595
C           -3.39879881505236        0.48570673174401        0.31345819764431
C           -4.30732238667643        0.00615636392349       -0.63268465209157
C           -4.81147195113563       -1.28169818354611       -0.56375431933889
O           -5.69223091407464       -1.82114902162074       -1.43297193743673
C           -6.25207117945510       -1.00913076066965       -2.43806841270631
C           -4.39166522737144       -2.14234466579436        0.48604306149947
O           -4.91563377095856       -3.38522289885543        0.46312627678601
C           -4.60132957810727       -4.27837411868898        1.50559334353958
C           -3.50255097474737       -1.65521434580184        1.43046517639361
C           -3.01583923954531       -0.35623771295465        1.34549165603661
C           -2.30315434081992        2.17174545044464       -1.20943046812467
C           -1.46588877473214        1.01912960348514       -1.80142133740807
C           -0.17539854334682        0.80430406655787       -1.11074178701769
N            0.29006573623876       -0.36770623274580       -0.68410796617742
C            1.62264472181865       -0.47802870893041       -0.16740678596440
C            2.61407905781529       -1.07511105081662       -1.22102598353188
C            4.00740630358743       -0.98395295549873       -0.83034582307452
C            4.98036450800749        2.15702464791041        0.15524196528854
C            6.24947066232951        1.88415535438210        0.05612041024996
C            6.92964669060796        0.58460276668570        0.07242907326364
O            8.27948888680523        0.47329040739581        0.03680771774174
C            9.10862739385213        1.60123889696681       -0.09877303486202
C            6.23942748348768       -0.60033332975721        0.12372360515314
O            6.96409098390061       -1.73469502707883        0.14808992526510
C            6.30523400697445       -2.97380087862938        0.26687392178186
C            4.75921302028516       -0.63497741865181        0.17699516841881
C           -0.46865063369951       -1.58944550288456       -0.82201647775237
C           -4.06843977426842        2.87917951879100        0.48416858965699
C           -4.70914569874317        2.60285500969648        1.84257407676253
C           -3.67980593670316        4.35189448998742        0.38874716249819
H           -4.63366161046116        0.65669475117740       -1.42711179230975
H           -6.76850598595385       -0.14340108806175       -2.01276611307790
H           -6.97277990645054       -1.63990091240856       -2.95463399794159
H           -5.49400742830051       -0.67022467420830       -3.15199250065150
H           -4.90907820431995       -3.88408623452843        2.47848227800887
H           -5.16121537287280       -5.18637517386119        1.29092128544364
H           -3.53130511081927       -4.50983774306885        1.52684384620339
H           -3.18601739255460       -2.27674342840426        2.25217747438059
H           -2.34597294283832       -0.00397100681014        2.11436496124487
H           -3.12921447850720        2.36543360199469       -1.89315956924822
H           -1.68938288284926        3.07284607095469       -1.17364094200250
H           -2.06204257732075        0.10928413824334       -1.82638445505900
H           -1.24489546250432        1.30455112402191       -2.83812003087431
H           -0.84933417091901        1.49908072120175        0.84972072153799
H            0.49745764657724        1.64610526552885       -1.04059615164143
H            1.62032673506089       -1.11742137767518        0.71948339285492
H            1.98214892424771        0.51356880576773        0.11473657215231
H            2.48014114841465       -0.51815899140857       -2.15737720502560
H            2.35244745817835       -2.11933489359077       -1.42021813636734
H            4.00000170423456        1.76048518542941        0.26850547388335
H            6.94034418364744        2.72144786736703       -0.03319615246611
H            9.01263095363562        2.28115360470407        0.75346248011826
H            8.91325771920510        2.13852851365582       -1.03247171567716
H           10.12213980933814        1.20507718720251       -0.12338452228411
H            7.09488731770147       -3.72201718914298        0.29194145100957
H            5.72220314149714       -3.02682641793943        1.19285172892957
H            5.64391161762816       -3.15884454036380       -0.58370305471804
H            4.36037010223231       -0.41573297938217        1.18360356836294
H           -0.58378418638786       -1.86636965500432       -1.87237809114372
H           -1.45884809309597       -1.47611508045994       -0.37632517582796
H            0.04989628554002       -2.39335457210154       -0.30569565970747
H           -4.81894437367712        2.67551497599159       -0.28843265524993
H           -3.99985917128692        2.80937576292384        2.63753311809481
H           -5.03710708695283        1.56908308699008        1.92052164397571
H           -5.57440332015319        3.24695308337152        1.97482519772477
H           -2.91966852867562        4.58895547378912        1.12650568643624
H           -3.31387000726987        4.61308354246321       -0.60063731486811
H           -4.55420128742815        4.96430789292914        0.59311138056529
H           -0.89100273411639        2.93004051750414        2.70009039779182

 Bond Distances (Angstroems)
 ---------------------------
N1-C2=1.2491         N1-H72=1.0153        C2-N1=1.2491         C2-C3=1.5042         C2-H47=1.1063        C3-C2=1.5042         
C3-C4=1.5197         C3-C14=1.5526        C3-C31=1.5578        C4-C3=1.5197         C4-C5=1.3966         C4-C13=1.3859        
C5-C4=1.3966         C5-C6=1.3847         C5-H34=1.0774        C6-C5=1.3847         C6-O7=1.3499         C6-C9=1.4209         
O7-C6=1.3499         O7-C8=1.4082         C8-O7=1.4082         C8-H35=1.0941        C8-H36=1.0882        C8-H37=1.0951        
C9-C6=1.4209         C9-O10=1.3490        C9-C12=1.3856        O10-C9=1.3490        O10-C11=1.4083       C11-O10=1.4083       
C11-H38=1.0939       C11-H39=1.0881       C11-H40=1.0950       C12-C9=1.3856        C12-C13=1.3898       C12-H41=1.0778       
C13-C4=1.3859        C13-C12=1.3898       C13-H42=1.0789       C14-C3=1.5526        C14-C15=1.5427       C14-H43=1.0897       
C14-H44=1.0909       C15-C14=1.5427       C15-C16=1.4794       C15-H45=1.0880       C15-H46=1.0977       C16-C15=1.4794       
C16-N17=1.3313       C16-H48=1.0799       N17-C16=1.3313       N17-C18=1.4335       N17-C30=1.4448       C18-N17=1.4335       
C18-C19=1.5651       C18-H49=1.0933       C18-H50=1.0918       C19-C18=1.5651       C19-C20=1.4499       C19-H51=1.0977       
C19-H52=1.0948       C20-C19=1.4499       C20-C29=1.3045       C21-C22=1.3019       C21-H53=1.0636       C22-C21=1.3019       
C22-C23=1.4669       C22-H54=1.0892       C23-C22=1.4669       C23-O24=1.3549       C23-C26=1.3723       O24-C23=1.3549       
O24-C25=1.4065       C25-O24=1.4065       C25-H55=1.0944       C25-H56=1.0948       C25-H57=1.0885       C26-C23=1.3723       
C26-O27=1.3463       C26-C29=1.4816       O27-C26=1.3463       O27-C28=1.4084       C28-O27=1.4084       C28-H58=1.0881       
C28-H59=1.0955       C28-H60=1.0932       C29-C20=1.3045       C29-C26=1.4816       C29-H61=1.1047       C30-N17=1.4448       
C30-H62=1.0923       C30-H63=1.0918       C30-H64=1.0871       C31-C3=1.5578        C31-C32=1.5271       C31-C33=1.5261       
C31-H65=1.0962       C32-C31=1.5271       C32-H66=1.0852       C32-H67=1.0873       C32-H68=1.0867       C33-C31=1.5261       
C33-H69=1.0855       C33-H70=1.0867       C33-H71=1.0869       H34-C5=1.0774        H35-C8=1.0941        H36-C8=1.0882        
H37-C8=1.0951        H38-C11=1.0939       H39-C11=1.0881       H40-C11=1.0950       H41-C12=1.0778       H42-C13=1.0789       
H43-C14=1.0897       H44-C14=1.0909       H45-C15=1.0880       H46-C15=1.0977       H47-C2=1.1063        H48-C16=1.0799       
H49-C18=1.0933       H50-C18=1.0918       H51-C19=1.0977       H52-C19=1.0948       H53-C21=1.0636       H54-C22=1.0892       
H55-C25=1.0944       H56-C25=1.0948       H57-C25=1.0885       H58-C28=1.0881       H59-C28=1.0955       H60-C28=1.0932       
H61-C29=1.1047       H62-C30=1.0923       H63-C30=1.0918       H64-C30=1.0871       H65-C31=1.0962       H66-C32=1.0852       
H67-C32=1.0873       H68-C32=1.0867       H69-C33=1.0855       H70-C33=1.0867       H71-C33=1.0869       H72-N1=1.0153        
 C  H  Rav=1.0899 sigma=0.0076  Rmin=1.0636  Rmax=1.1063    38
 C  C  Rav=1.4531 sigma=0.0800  Rmin=1.3019  Rmax=1.5651    21
 N  H  Rav=1.0153 sigma=0.0000  Rmin=1.0153  Rmax=1.0153     1
 N  C  Rav=1.3647 sigma=0.0800  Rmin=1.2491  Rmax=1.4448     4
 O  C  Rav=1.3789 sigma=0.0290  Rmin=1.3463  Rmax=1.4084     8

 selected bond angles (degree)
 --------------------
H72-N1-C2=117.85               C3-C2-N1=124.64                H47-C2-N1=123.83               H47-C2-C3=111.48               
C4-C3-C2=109.44                C14-C3-C2=105.74               C14-C3-C4=110.36               C31-C3-C2=113.30               
C31-C3-C4=108.09               C31-C3-C14=109.91              C5-C4-C3=119.79                C13-C4-C3=121.79               
C13-C4-C5=118.40               C6-C5-C4=121.50                H34-C5-C4=119.29               H34-C5-C6=119.21               
O7-C6-C5=125.25                C9-C6-C5=119.51                C9-C6-O7=115.24                C8-O7-C6=119.24                
H35-C8-O7=111.50               H36-C8-O7=105.54               H36-C8-H35=109.30              H37-C8-O7=111.63               
H37-C8-H35=109.59              H37-C8-H36=109.17              O10-C9-C6=115.51               C12-C9-C6=118.70               
C12-C9-O10=125.78              C11-O10-C9=119.02              

 selected dihedral angles (degree)
 ---------------------------------
C3-C2-N1-H72=182.02           H47-C2-N1-H72=359.24          C4-C3-C2-N1=244.95            C4-C3-C2-H47= 67.44           
C14-C3-C2-N1=126.08           C14-C3-C2-H47=308.57          C31-C3-C2-N1=  5.64           C31-C3-C2-H47=188.13          
C5-C4-C3-C2=191.22            C5-C4-C3-C14=307.19           C5-C4-C3-C31= 67.41           C13-C4-C3-C2= 12.54           
C13-C4-C3-C14=128.51          C13-C4-C3-C31=248.73          C6-C5-C4-C3=180.58            C6-C5-C4-C13=359.30           
H34-C5-C4-C3=359.76           H34-C5-C4-C13=178.49          O7-C6-C5-C4=179.86            O7-C6-C5-H34=  0.68           
C9-C6-C5-C4=359.57            C9-C6-C5-H34=180.38           C8-O7-C6-C5=354.31            C8-O7-C6-C9=174.59            
H35-C8-O7-C6=302.61           H36-C8-O7-C6=184.04           H37-C8-O7-C6= 65.56           O10-C9-C6-C5=181.07           
O10-C9-C6-O7=  0.80           C12-C9-C6-C5=  1.18           C12-C9-C6-O7=180.92           C11-O10-C9-C6=183.10          
C11-O10-C9-C12=  2.97         
           -------------------------------------------------
          |                Final Singlepoint                |
           -------------------------------------------------

          ...................................................
          :                      SETUP                      :
          :.................................................:
          :  # basis functions                 171          :
          :  # atomic orbitals                 171          :
          :  # shells                          105          :
          :  # electrons                       180          :
          :  max. iterations                   250          :
          :  Hamiltonian                  GFN2-xTB          :
          :  restarted?                      false          :
          :  GBSA solvation                  false          :
          :  PC potential                    false          :
          :  electronic temp.         5000.0000000     K    :
          :  accuracy                    1.0000000          :
          :  -> integral cutoff          0.2500000E+02      :
          :  -> integral neglect         0.1000000E-07      :
          :  -> SCF convergence          0.1000000E-05 Eh   :
          :  -> wf. convergence          0.1000000E-03 e    :
          :  Broyden damping             0.4000000          :
          ...................................................

 iter      E             dE          RMSdq      gap      omega  full diag
   1   -100.5542181 -0.100554E+03  0.158E-04    0.26       0.0  T
   2   -100.5542181  0.219814E-07  0.467E-04    0.26      25.2  T
   3   -100.5542181 -0.225623E-07  0.113E-04    0.26     104.4  T

   *** convergence criteria satisfied after 3 iterations ***

         #    Occupation            Energy/Eh            Energy/eV
      -------------------------------------------------------------
         1        2.0000           -0.8136969             -22.1418
       ...           ...                  ...                  ...
        84        1.9944           -0.5083166             -13.8320
        85        1.9930           -0.5047641             -13.7353
        86        1.9822           -0.4899113             -13.3312
        87        1.9379           -0.4697582             -12.7828
        88        1.8818           -0.4591024             -12.4928
        89        1.6596           -0.4403608             -11.9828
        90        1.2511           -0.4234025             -11.5214 (HOMO)
        91        0.9510           -0.4137255             -11.2580 (LUMO)
        92        0.3412           -0.3902366             -10.6189
        93        0.0144           -0.3372781              -9.1778
        94        0.0107           -0.3325583              -9.0494
        95        0.0038           -0.3162558              -8.6058
       ...           ...                  ...                  ...
       171                          0.6885968              18.7377
      -------------------------------------------------------------
                  HL-Gap            0.0096770 Eh            0.2633 eV
             Fermi-level           -0.4152783 Eh          -11.3003 eV

 SCC (total)                   0 d,  0 h,  0 min,  0.117 sec
 SCC setup                      ...        0 min,  0.001 sec (  0.743%)
 Dispersion                     ...        0 min,  0.002 sec (  1.358%)
 classical contributions        ...        0 min,  0.000 sec (  0.366%)
 integral evaluation            ...        0 min,  0.018 sec ( 15.377%)
 iterations                     ...        0 min,  0.026 sec ( 22.401%)
 molecular gradient             ...        0 min,  0.069 sec ( 59.191%)
 printout                       ...        0 min,  0.001 sec (  0.550%)

         :::::::::::::::::::::::::::::::::::::::::::::::::::::
         ::                     SUMMARY                     ::
         :::::::::::::::::::::::::::::::::::::::::::::::::::::
         :: total energy             -99.179184439438 Eh    ::
         :: gradient norm              0.009419653471 Eh/a0 ::
         :: HOMO-LUMO gap              0.263324109961 eV    ::
         ::.................................................::
         :: SCC energy              -100.554218147138 Eh    ::
         :: -> isotropic ES            0.108366598471 Eh    ::
         :: -> anisotropic ES          0.005977636240 Eh    ::
         :: -> anisotropic XC          0.047588160451 Eh    ::
         :: -> dispersion             -0.075136690503 Eh    ::
         :: repulsion energy           1.373631843301 Eh    ::
         :: add. restraining           0.000000000000 Eh    ::
         :: total charge               1.000000000000 e     ::
         :::::::::::::::::::::::::::::::::::::::::::::::::::::

           -------------------------------------------------
          |                Property Printout                |
           -------------------------------------------------

    * Orbital Energies and Occupations

         #    Occupation            Energy/Eh            Energy/eV
      -------------------------------------------------------------
         1        2.0000           -0.8136969             -22.1418
       ...           ...                  ...                  ...
        78        1.9983           -0.5275679             -14.3559
        79        1.9982           -0.5265065             -14.3270
        80        1.9976           -0.5217927             -14.1987
        81        1.9964           -0.5153619             -14.0237
        82        1.9960           -0.5135616             -13.9747
        83        1.9953           -0.5110488             -13.9063
        84        1.9944           -0.5083166             -13.8320
        85        1.9930           -0.5047641             -13.7353
        86        1.9822           -0.4899113             -13.3312
        87        1.9379           -0.4697582             -12.7828
        88        1.8818           -0.4591024             -12.4928
        89        1.6596           -0.4403608             -11.9828
        90        1.2511           -0.4234025             -11.5214 (HOMO)
        91        0.9510           -0.4137255             -11.2580 (LUMO)
        92        0.3412           -0.3902366             -10.6189
        93        0.0144           -0.3372781              -9.1778
        94        0.0107           -0.3325583              -9.0494
        95        0.0038           -0.3162558              -8.6058
        96        0.0031           -0.3129084              -8.5147
        97        0.0011           -0.2962933              -8.0625
        98        0.0000           -0.2318118              -6.3079
        99        0.0000           -0.1904461              -5.1823
       100                         -0.1328541              -3.6151
       101                         -0.0786569              -2.1404
       ...                                ...                  ...
       171                          0.6885968              18.7377
      -------------------------------------------------------------
                  HL-Gap            0.0096770 Eh            0.2633 eV
             Fermi-level           -0.4152783 Eh          -11.3003 eV

     #   Z          covCN         q      C6AA      α(0)
     1   7 N        1.774    -0.270    27.825     7.811
     2   6 C        2.827     0.101    25.746     8.314
     3   6 C        3.907     0.006    20.414     6.422
     4   6 C        2.974     0.002    27.984     8.677
     5   6 C        2.920    -0.081    30.020     8.985
     6   6 C        2.862     0.128    25.192     8.227
     7   8 O        1.706    -0.232    17.847     5.704
     8   6 C        3.644     0.028    20.439     6.498
     9   6 C        2.864     0.127    25.215     8.231
    10   8 O        1.706    -0.231    17.823     5.700
    11   6 C        3.645     0.027    20.447     6.499
    12   6 C        2.914    -0.075    29.883     8.964
    13   6 C        2.921    -0.053    29.320     8.880
    14   6 C        3.811    -0.064    21.714     6.633
    15   6 C        3.801    -0.069    21.817     6.650
    16   6 C        2.844     0.002    27.968     8.667
    17   7 N        2.729     0.010    21.082     6.819
    18   6 C        3.753    -0.016    20.911     6.521
    19   6 C        3.799    -0.053    21.529     6.606
    20   6 C        1.970    -0.079    33.235     9.310
    21   6 C        1.911    -0.105    34.007     9.418
    22   6 C        2.889    -0.040    28.988     8.827
    23   6 C        2.837     0.119    25.375     8.255
    24   8 O        1.707    -0.225    17.731     5.685
    25   6 C        3.637     0.028    20.471     6.509
    26   6 C        2.849     0.129    25.170     8.223
    27   8 O        1.706    -0.206    17.423     5.636
    28   6 C        3.645     0.024    20.501     6.508
    29   6 C        2.887    -0.056    29.396     8.889
    30   6 C        3.700    -0.070    22.015     6.710
    31   6 C        3.853    -0.007    20.669     6.466
    32   6 C        3.756    -0.118    22.818     6.811
    33   6 C        3.755    -0.119    22.837     6.814
    34   1 H        0.926     0.052     2.297     2.370
    35   1 H        0.924     0.054     2.276     2.359
    36   1 H        0.925     0.081     1.972     2.196
    37   1 H        0.924     0.046     2.366     2.406
    38   1 H        0.924     0.055     2.260     2.351
    39   1 H        0.925     0.081     1.972     2.196
    40   1 H        0.924     0.047     2.363     2.404
    41   1 H        0.926     0.051     2.302     2.372
    42   1 H        0.926     0.039     2.464     2.455
    43   1 H        0.925     0.060     2.194     2.317
    44   1 H        0.924     0.053     2.281     2.362
    45   1 H        0.925     0.065     2.144     2.290
    46   1 H        0.924     0.077     2.007     2.215
    47   1 H        0.922     0.004     2.993     2.705
    48   1 H        0.926     0.066     2.127     2.281
    49   1 H        0.924     0.065     2.140     2.288
    50   1 H        0.924     0.063     2.169     2.303
    51   1 H        0.924     0.070     2.090     2.261
    52   1 H        0.924     0.068     2.111     2.272
    53   1 H        0.927     0.063     2.160     2.298
    54   1 H        0.925     0.091     1.867     2.137
    55   1 H        0.924     0.057     2.229     2.335
    56   1 H        0.924     0.057     2.232     2.336
    57   1 H        0.925     0.084     1.936     2.176
    58   1 H        0.925     0.086     1.919     2.166
    59   1 H        0.924     0.054     2.276     2.359
    60   1 H        0.924     0.060     2.199     2.319
    61   1 H        0.922     0.057     2.235     2.338
    62   1 H        0.924     0.076     2.024     2.225
    63   1 H        0.924     0.081     1.972     2.196
    64   1 H        0.925     0.078     2.002     2.213
    65   1 H        0.924     0.036     2.496     2.471
    66   1 H        0.925     0.068     2.111     2.272
    67   1 H        0.925     0.035     2.518     2.482
    68   1 H        0.925     0.051     2.309     2.376
    69   1 H        0.925     0.062     2.171     2.304
    70   1 H        0.925     0.035     2.521     2.483
    71   1 H        0.925     0.054     2.272     2.357
    72   1 H        0.860     0.156     1.363     1.829

 Mol. C6AA /au·bohr⁶  :      47661.147774
 Mol. C8AA /au·bohr⁸  :    1088458.293424
 Mol. α(0) /au        :        334.942839


Wiberg/Mayer (AO) data.
largest (>0.10) Wiberg bond orders for each atom

 ---------------------------------------------------------------------------
     #   Z sym  total        # sym  WBO       # sym  WBO       # sym  WBO
 ---------------------------------------------------------------------------
     1   7 N    3.035 --     2 C    1.955    72 H    0.942
     2   6 C    3.931 --     1 N    1.955     3 C    0.994    47 H    0.905
     3   6 C    3.976 --     2 C    0.994     4 C    0.972    14 C    0.956
                            31 C    0.943
     4   6 C    3.952 --    13 C    1.416     5 C    1.367     3 C    0.972
     5   6 C    3.963 --     6 C    1.402     4 C    1.367    34 H    0.958
     6   6 C    3.908 --     5 C    1.402     9 C    1.224     7 O    1.097
     7   8 O    2.253 --     6 C    1.097     8 C    0.978
     8   6 C    3.933 --     7 O    0.978    36 H    0.977    35 H    0.974
                            37 H    0.974
     9   6 C    3.904 --    12 C    1.393     6 C    1.224    10 O    1.099
    10   8 O    2.252 --     9 C    1.099    11 C    0.978
    11   6 C    3.932 --    10 O    0.978    39 H    0.977    40 H    0.974
                            38 H    0.973
    12   6 C    3.964 --    13 C    1.401     9 C    1.393    41 H    0.964
    13   6 C    3.956 --     4 C    1.416    12 C    1.401    42 H    0.963
    14   6 C    3.969 --    15 C    0.977    44 H    0.973    43 H    0.968
                             3 C    0.956
    15   6 C    3.987 --    16 C    1.061    14 C    0.977    45 H    0.962
                            46 H    0.931
    16   6 C    3.591 --    17 N    1.384    15 C    1.061    48 H    0.958
    17   7 N    3.489 --    16 C    1.384    18 C    1.006    30 C    0.997
    18   6 C    3.914 --    17 N    1.006    50 H    0.966    49 H    0.964
                            19 C    0.920
    19   6 C    3.962 --    20 C    1.088    52 H    0.952    51 H    0.947
                            18 C    0.920
    20   6 C    3.153 --    29 C    1.938    19 C    1.088
    21   6 C    3.043 --    22 C    1.934    53 H    0.948
    22   6 C    3.956 --    21 C    1.934    23 C    1.050    54 H    0.906
    23   6 C    3.741 --    26 C    1.456    24 O    1.087    22 C    1.050
    24   8 O    2.206 --    23 C    1.087    25 C    0.976
    25   6 C    3.922 --    24 O    0.976    57 H    0.973    56 H    0.970
                            55 H    0.969
    26   6 C    3.770 --    23 C    1.456    27 O    1.119    29 C    0.995
    27   8 O    2.248 --    26 C    1.119    28 C    0.974
    28   6 C    3.923 --    58 H    0.976    27 O    0.974    59 H    0.973
                            60 H    0.971
    29   6 C    3.945 --    20 C    1.938    26 C    0.995    61 H    0.875
    30   6 C    3.957 --    17 N    0.997    64 H    0.978    62 H    0.967
                            63 H    0.960
    31   6 C    3.973 --    33 C    1.009    32 C    1.008    65 H    0.960
                             3 C    0.943
    32   6 C    3.980 --    31 C    1.008    67 H    0.982    68 H    0.982
                            66 H    0.975
    33   6 C    3.982 --    31 C    1.009    70 H    0.983    71 H    0.980
                            69 H    0.976
    34   1 H    0.996 --     5 C    0.958
    35   1 H    0.994 --     8 C    0.974
    36   1 H    0.993 --     8 C    0.977
    37   1 H    0.994 --     8 C    0.974
    38   1 H    0.993 --    11 C    0.973
    39   1 H    0.993 --    11 C    0.977
    40   1 H    0.994 --    11 C    0.974
    41   1 H    0.996 --    12 C    0.964
    42   1 H    0.998 --    13 C    0.963
    43   1 H    0.995 --    14 C    0.968
    44   1 H    0.996 --    14 C    0.973
    45   1 H    0.995 --    15 C    0.962
    46   1 H    0.970 --    15 C    0.931
    47   1 H    0.987 --     2 C    0.905
    48   1 H    0.995 --    16 C    0.958
    49   1 H    0.991 --    18 C    0.964
    50   1 H    0.995 --    18 C    0.966
    51   1 H    0.983 --    19 C    0.947
    52   1 H    0.992 --    19 C    0.952
    53   1 H    0.976 --    21 C    0.948
    54   1 H    0.943 --    22 C    0.906
    55   1 H    0.988 --    25 C    0.969
    56   1 H    0.988 --    25 C    0.970
    57   1 H    0.990 --    25 C    0.973
    58   1 H    0.992 --    28 C    0.976
    59   1 H    0.989 --    28 C    0.973
    60   1 H    0.988 --    28 C    0.971
    61   1 H    0.908 --    29 C    0.875
    62   1 H    0.985 --    30 C    0.967
    63   1 H    0.987 --    30 C    0.960
    64   1 H    0.994 --    30 C    0.978
    65   1 H    0.993 --    31 C    0.960
    66   1 H    0.991 --    32 C    0.975
    67   1 H    0.997 --    32 C    0.982
    68   1 H    0.994 --    32 C    0.982
    69   1 H    0.993 --    33 C    0.976
    70   1 H    0.997 --    33 C    0.983
    71   1 H    0.994 --    33 C    0.980
    72   1 H    0.971 --     1 N    0.942
 ---------------------------------------------------------------------------

Topologies differ in total number of bonds
Writing topology from bond orders to xtbtopo.mol

molecular dipole:
                 x           y           z       tot (Debye)
 q only:        1.198      -0.323      -0.761
   full:        1.393      -0.441      -0.693       4.111
molecular quadrupole (traceless):
                xx          xy          yy          xz          yz          zz
 q only:       58.030       6.696     -18.735       7.705      -7.966     -39.295
  q+dip:       54.018      11.424     -21.472      13.658     -11.269     -32.546
   full:       52.638      10.988     -20.551      11.638     -12.165     -32.087

           -------------------------------------------------
          |                Geometry Summary                 |
           -------------------------------------------------

      molecular mass/u    :      455.6105846
   center of mass at/Å    :        0.0089407       0.0177307      -0.0083930
  moments of inertia/u·Å² :        0.2442373E+04   0.1079569E+05   0.1218208E+05
rotational constants/cm⁻¹ :        0.6902154E-02   0.1561516E-02   0.1383806E-02

 * 59 selected distances

     #   Z          #   Z                                           value/Å
     1   7 N        2   6 C                                       1.2491225
     4   6 C        5   6 C                                       1.3966282
     5   6 C        6   6 C                                       1.3847339
     6   6 C        7   8 O                                       1.3499197
     7   8 O        8   6 C                                       1.4081953
     6   6 C        9   6 C                                       1.4209240
     9   6 C       10   8 O                                       1.3490051
    10   8 O       11   6 C                                       1.4082770
     9   6 C       12   6 C                                       1.3855517
     4   6 C       13   6 C                                       1.3858650
    12   6 C       13   6 C                                       1.3897660
    15   6 C       16   6 C                                       1.4793761
    16   6 C       17   7 N                                       1.3312708
    17   7 N       18   6 C                                       1.4334986
    21   6 C       22   6 C                                       1.3018884
    23   6 C       24   8 O                                       1.3548925
    24   8 O       25   6 C                                       1.4064569
    23   6 C       26   6 C                                       1.3722637
    26   6 C       27   8 O                                       1.3462941
    27   8 O       28   6 C                                       1.4083983
    20   6 C       29   6 C                                       1.3045051
    17   7 N       30   6 C                                       1.4447548
    31   6 C       32   6 C                                       1.5271297 (max)
    31   6 C       33   6 C                                       1.5261164
     5   6 C       34   1 H                                       1.0774099 (min)
     8   6 C       35   1 H                                       1.0941092
     8   6 C       36   1 H                                       1.0881784
     8   6 C       37   1 H                                       1.0950826
    11   6 C       38   1 H                                       1.0939311
    11   6 C       39   1 H                                       1.0881279
    11   6 C       40   1 H                                       1.0949793
    12   6 C       41   1 H                                       1.0778234
    13   6 C       42   1 H                                       1.0788786
    14   6 C       43   1 H                                       1.0896679
    14   6 C       44   1 H                                       1.0908615
    15   6 C       45   1 H                                       1.0880448
    15   6 C       46   1 H                                       1.0977467
    16   6 C       48   1 H                                       1.0799469
    18   6 C       49   1 H                                       1.0933448
    18   6 C       50   1 H                                       1.0918397
    19   6 C       51   1 H                                       1.0976743
    19   6 C       52   1 H                                       1.0947750
    22   6 C       54   1 H                                       1.0891936
    25   6 C       55   1 H                                       1.0944427
    25   6 C       56   1 H                                       1.0948255
    25   6 C       57   1 H                                       1.0884656
    28   6 C       58   1 H                                       1.0881216
    28   6 C       59   1 H                                       1.0955235
    28   6 C       60   1 H                                       1.0931925
    30   6 C       62   1 H                                       1.0923381
    30   6 C       63   1 H                                       1.0917764
    30   6 C       64   1 H                                       1.0870824
    31   6 C       65   1 H                                       1.0961977
    32   6 C       66   1 H                                       1.0852181
    32   6 C       67   1 H                                       1.0873450
    32   6 C       68   1 H                                       1.0867491
    33   6 C       69   1 H                                       1.0854928
    33   6 C       70   1 H                                       1.0867432
    33   6 C       71   1 H                                       1.0869141

 * 4 distinct bonds (by element types)

   Z      Z             #   av. dist./Å        max./Å        min./Å
   1 H    6 C          35     1.0897727     1.0977467     1.0774099
   6 C    6 C          12     1.4062290     1.5271297     1.3018884
   6 C    7 N           4     1.3646617     1.4447548     1.2491225
   6 C    8 O           8     1.3789299     1.4083983     1.3462941


optimized geometry written to: xtbopt.xyz


           -------------------------------------------------
          | TOTAL ENERGY              -99.179184439438 Eh   |
          | GRADIENT NORM               0.009419653471 Eh/α |
          | HOMO-LUMO GAP               0.263324109961 eV   |
           -------------------------------------------------

------------------------------------------------------------------------
 * finished run on 2024/04/06 at 11:14:56.614     
------------------------------------------------------------------------
 total:
 * wall-time:     0 d,  0 h,  0 min,  3.323 sec
 *  cpu-time:     0 d,  0 h,  0 min,  3.292 sec
 * ratio c/w:     0.991 speedup
 SCF:
 * wall-time:     0 d,  0 h,  0 min,  0.120 sec
 *  cpu-time:     0 d,  0 h,  0 min,  0.120 sec
 * ratio c/w:     1.000 speedup
 ANC optimizer:
 * wall-time:     0 d,  0 h,  0 min,  3.157 sec
 *  cpu-time:     0 d,  0 h,  0 min,  3.148 sec
 * ratio c/w:     0.997 speedup

