25
 energy: -40.425624575189 gnorm: 8.787190186536 xtb: 6.6.1 (8d0f1dd)
C            3.48523651087790        1.05791454894715        0.01948880630433
N            2.43540070536507        0.07572991507634       -0.00368385442862
C            2.58625783729287       -1.25687045178584       -0.02913812537167
N            1.36745212554952       -1.83477595689217       -0.02987940467526
C            0.40137902579178       -0.84682427394501       -0.00016732250980
C            1.08073449198789        0.37418990667290        0.02049971538066
C           -0.55626997626046        2.20572412591663        0.08124482662711
O            0.73812982348611        1.64727786169690        0.05368836070108
N           -1.58603122357997        1.26709551703811        0.02852368315739
C           -3.03670745469945        1.41112156490417       -0.02275146633360
C           -1.78593163639569       -0.05295374249944        0.02671913264991
O           -3.16053944624775       -0.01333941086270       -0.03216014988137
N           -0.94362133774986       -1.10158100075563       -0.00238563195329
C           -1.47189606157957       -2.45122234842237       -0.01871979223908
H            3.84823481691694        1.20640020691908        1.03908125537777
H            4.31141117012120        0.73106061144451       -0.60960461441587
H            3.09050600378133        2.00218096097351       -0.35209493868920
H            3.52045742721928       -1.77543954947314       -0.05385216000021
H           -0.60170071216669        2.62677741251909        0.10307734255716
H           -3.40894897866495        1.86669134874085       -0.94141068106627
H           -3.48402626010536        1.86620531365260        0.86280516815451
H           -1.15959018450179       -2.99572604679935        0.87419711061352
H           -1.14152766308140       -2.98002658942845       -0.91418219478807
H           -2.55785537105730       -2.38608494527490       -0.02931279633919
H            1.18987788180012       -2.82528643675951       -0.03881065092492
25
 energy: -42.121047544267 gnorm: 0.149507389182 xtb: 6.6.1 (8d0f1dd)
C            3.48525211785948        1.05793071981733        0.01951064415319
N            2.43553549373852        0.07568665870682       -0.00369883328581
C            2.58629902145465       -1.25686788744048       -0.02913950479357
N            1.36743221083558       -1.83477899402522       -0.02986004668051
C            0.40146105001637       -0.84685417082589       -0.00017875383081
C            1.08241550238757        0.37345975696367        0.02049271908322
C           -0.52536942469333        1.92007206983973        0.06629303106564
O            0.74189482287440        1.63749307556617        0.05319005084900
N           -1.58742500453961        1.25347725601016        0.02772673256613
C           -3.03659281461823        1.41171119615322       -0.02271946582272
C           -1.78733980374333       -0.05396005758789        0.02679495535737
O           -3.16082718959173       -0.01331416308005       -0.03212254005504
N           -0.94372321433699       -1.10167195624358       -0.00244427017413
C           -1.47190970254588       -2.45124450141002       -0.01871468461809
H            3.84822588526321        1.20640395409172        1.03905013462732
H            4.31139709398575        0.73106527062896       -0.60958337610178
H            3.09052767600701        2.00214690994074       -0.35209187397171
H            3.52045147324967       -1.77543791461430       -0.05385058734130
H           -0.63523610629374        2.93708654861312        0.11926278738581
H           -3.40895577978289        1.86671869247407       -0.94144584813875
H           -3.48399458580182        1.86622405161035        0.86282826239592
H           -1.15959263221646       -2.99572362492045        0.87418564114057
H           -1.14153148327047       -2.98001843039637       -0.91417692570860
H           -2.55784404195226       -2.38608271706406       -0.02931459817411
H            1.18988094981432       -2.82528320120441       -0.03882203202020
25
 energy: -42.139484437768 gnorm: 0.052461758056 xtb: 6.6.1 (8d0f1dd)
C            3.49184869589486        1.05353841251115        0.02012456721542
N            2.45080091535757        0.06367672750538       -0.00463218212648
C            2.59529776287157       -1.26874723474382       -0.02929158847876
N            1.37130382546835       -1.84334449466429       -0.02986084181498
C            0.40242241378050       -0.85314264151125       -0.00115117003100
C            1.09883512979350        0.36252286584771        0.02074077218489
C           -0.51389286085081        2.00273611568159        0.06730591396144
O            0.76148072860316        1.64370103269922        0.05368570588341
N           -1.61599327788097        1.24957540259418        0.03082868488829
C           -3.05995810012627        1.39869203932065       -0.02314326940640
C           -1.81037927817654       -0.07189276973110        0.03034245012705
O           -3.19472700371304       -0.02605914572530       -0.03280083622016
N           -0.94467969354264       -1.11179987596067       -0.00407618823591
C           -1.46885579755184       -2.46072563442147       -0.01966860066721
H            3.85204497959039        1.20659336760798        1.03951772648312
H            4.31891711600566        0.73205083854485       -0.60874394960002
H            3.09349993705189        1.99591012153284       -0.35268651037570
H            3.52770110830033       -1.78752912495296       -0.05392114134402
H           -0.62315714015162        3.02194868458141        0.11915750617671
H           -3.41908606310754        1.86207319147497       -0.94342333124810
H           -3.49457760885138        1.86159682143353        0.86417490789844
H           -1.15634280319093       -3.00267914158625        0.87395755093668
H           -1.13896892967094       -2.98682750395924       -0.91603303668507
H           -2.55433620869765       -2.39176714332270       -0.02966010312457
H            1.19123366689416       -2.83186236915307       -0.03957141849006
25
 energy: -42.143634907991 gnorm: 0.041283257657 xtb: 6.6.1 (8d0f1dd)
C            3.49598098464792        1.04668670300575        0.01994407449761
N            2.45407394788262        0.05762522764586       -0.00473025522822
C            2.59768470733705       -1.27636371159420       -0.02863921261399
N            1.37195420155704       -1.84859058452053       -0.02898275152977
C            0.40414647923376       -0.85666158953791       -0.00123398989707
C            1.10061568616032        0.35809562992226        0.02219710941871
C           -0.53233120699159        2.06125721389905        0.06580696395769
O            0.75098278841017        1.64478722521740        0.05498357617510
N           -1.61304549821916        1.25152245224472        0.03421700094848
C           -3.05826699122973        1.39546667632514       -0.02214355569074
C           -1.80487779312283       -0.07794234741529        0.03515309296122
O           -3.19092083067940       -0.02721075529666       -0.03197043848613
N           -0.93935899098363       -1.11597486092435       -0.00503213981895
C           -1.46520285411834       -2.46599824676888       -0.02125500263375
H            3.85554854332804        1.20264437966496        1.03887583002889
H            4.32541977572466        0.72511669917283       -0.60607925728737
H            3.09877871324390        1.98744929257157       -0.35649368101921
H            3.52916790420970       -1.79760790270806       -0.05354263985596
H           -0.64355914334307        3.08365776307149        0.11619836302214
H           -3.42414189416425        1.85561702430229       -0.94234808010492
H           -3.50024290987993        1.85444865174570        0.86434523842892
H           -1.15450272497658       -3.01138502221531        0.87096719580313
H           -1.13742530368610       -2.99350187771535       -0.91763407197728
H           -2.55083464070317       -2.39763486824976       -0.03121175710697
H            1.19078856446237       -2.83726463023938       -0.04021999408454
25
 energy: -42.144502685560 gnorm: 0.039578398081 xtb: 6.6.1 (8d0f1dd)
C            3.49526658550042        1.04318556283576        0.02092681987843
N            2.44924793980557        0.05797939026182       -0.00487723462815
C            2.59506370641408       -1.27668145415396       -0.02838479189690
N            1.37052759486845       -1.85037681026914       -0.02927034340648
C            0.40342394613133       -0.85905546494974       -0.00229118081982
C            1.09482361541735        0.35742846806277        0.02135979111118
C           -0.54048541033556        2.08805194537612        0.06183324356181
O            0.74015353579799        1.64224109489954        0.05369022224453
N           -1.60344586382812        1.25150623809884        0.03651709778705
C           -3.05126726279573        1.39513862445322       -0.02022891557730
C           -1.79687077463605       -0.07847103604359        0.04074772940874
O           -3.18118734835929       -0.02643763736612       -0.02901663968098
N           -0.93738853892446       -1.11865356011955       -0.00566712284186
C           -1.46349583369223       -2.46971085262506       -0.02242999535012
H            3.85279422175833        1.20026943704344        1.04061809397114
H            4.32708337371590        0.71713372834708       -0.60075727530490
H            3.10157903375729        1.98341185679551       -0.35990174533766
H            3.52683004561331       -1.79840032071898       -0.05305404096639
H           -0.65301827946836        3.11444739244559        0.11094812782657
H           -3.42406811990727        1.85144530912989       -0.93991140318834
H           -3.50020445296040        1.85097795547293        0.86492711856418
H           -1.15111062532098       -3.01675788944277        0.86852404943142
H           -1.13543894021447       -2.99695499483641       -0.91927232400212
H           -2.54924841510985       -2.40353043310811       -0.03169597941588
H            1.19086778087252       -2.83994800798574       -0.04216168346114
25
 energy: -42.144811968294 gnorm: 0.034553172004 xtb: 6.6.1 (8d0f1dd)
C            3.49384155399438        1.04169969790339        0.02242739919011
N            2.44398726810223        0.06045952678695       -0.00534247029718
C            2.59250371842222       -1.27423557366248       -0.02834462220416
N            1.36969640406612       -1.85045791753695       -0.02999622739232
C            0.40232235135732       -0.86066893066994       -0.00422719174018
C            1.08876903545096        0.35874567356553        0.01906393422203
C           -0.54394248160478        2.09544948708986        0.05704890408991
O            0.73368941454195        1.64027789536697        0.05106973354681
N           -1.59664385409070        1.25084425807606        0.03815949194817
C           -3.04590414419902        1.39528175117973       -0.01801133526512
C           -1.79238572244871       -0.07727741593505        0.04666785804041
O           -3.17460749264011       -0.02644937435654       -0.02462990104944
N           -0.93807357064573       -1.12043221890867       -0.00646313582002
C           -1.46333406848509       -2.47193914033024       -0.02349029649337
H            3.84748971084564        1.19979231578474        1.04336137337708
H            4.32742567581956        0.70946053619199       -0.59391699594938
H            3.10562204467078        1.98202230299551       -0.36335862470930
H            3.52482860143834       -1.79530856369350       -0.05217026002625
H           -0.65751586783320        3.12611492654705        0.10519374183577
H           -3.42116743114186        1.84953893006524       -0.93771938175285
H           -3.49637705164922        1.85118400240374        0.86648196722851
H           -1.14825956804207       -3.01964163740435        0.86634727525165
H           -1.13469681054900       -2.99775289763728       -0.92119108903481
H           -2.54910015297695       -2.40783328406359       -0.03155381988781
H            1.19226395169674       -2.84063580815485       -0.04423470920123
25
 energy: -42.145078548873 gnorm: 0.026350188806 xtb: 6.6.1 (8d0f1dd)
C            3.49200396818148        1.04080602289338        0.02503099196863
N            2.43819023652637        0.06387024124752       -0.00649547541483
C            2.59012806294503       -1.27041424388090       -0.02849231313299
N            1.36937940435097       -1.84997454592882       -0.03130582326905
C            0.40105850266552       -0.86256302670637       -0.00768558467156
C            1.08213651323868        0.36073573830754        0.01468825882892
C           -0.54552643063638        2.09652813159403        0.04930704646884
O            0.72923672153692        1.63856109698684        0.04630634183674
N           -1.59080901237314        1.24953774767652        0.04035699710225
C           -3.04108803010593        1.39549685256551       -0.01441764378489
C           -1.78937804358389       -0.07567887178414        0.05627096206613
O           -3.16944843640059       -0.02691099332892       -0.01689093982844
N           -0.94011856681699       -1.12254516015577       -0.00765859502126
C           -1.46392925830586       -2.47421703427374       -0.02518192246374
H            3.83776093703760        1.20170385118001        1.04831709408395
H            4.32868334388777        0.69980962826878       -0.58241335968390
H            3.11212487842685        1.98115930952645       -0.36893673329504
H            3.52326756852345       -1.78999388051411       -0.05064801333755
H           -0.66047004957214        3.13398261632178        0.09620582132256
H           -3.41711080969641        1.84742990311177       -0.93466731386977
H           -3.49014219185494        1.85377247654139        0.86938659563072
H           -1.14523471567604       -3.02272233480968        0.86294045638660
H           -1.13532238251120       -2.99729329053617       -0.92452015312383
H           -2.54959948217220       -2.41226878082371       -0.03104174467241
H            1.19463878648485       -2.84057291187587       -0.04728333221906
25
 energy: -42.145286382622 gnorm: 0.018599109474 xtb: 6.6.1 (8d0f1dd)
C            3.49091713956063        1.04053095173412        0.02797581005410
N            2.43509808683203        0.06596332407914       -0.00822232153887
C            2.58930166445787       -1.26782771943755       -0.02908243946485
N            1.36980115345169       -1.84953447057511       -0.03268240655928
C            0.40034371605184       -0.86392381569296       -0.01161026330465
C            1.07847454813060        0.36190992454130        0.00990913501882
C           -0.54514567941424        2.09373379949927        0.04050818064488
O            0.72879074874965        1.63839544141741        0.04117853533895
N           -1.58875116158855        1.24843095489457        0.04306038363847
C           -3.03916776117250        1.39537883862206       -0.01055276896892
C           -1.78889967253167       -0.07503685548626        0.06861369711911
O           -3.16817336797895       -0.02774015956439       -0.00772860829753
N           -0.94196797806955       -1.12399533160532       -0.00868559352672
C           -1.46475748253247       -2.47546201259063       -0.02720213504624
H            3.82626035406747        1.20658363988333        1.05401663689421
H            4.33215330834707        0.69202290974334       -0.56865329068266
H            3.11915402518691        1.98011962630158       -0.37574848649420
H            3.52314716125304       -1.78598542333843       -0.04957589268509
H           -0.66154598253779        3.13885141277487        0.08616483703107
H           -3.41461910167261        1.84449629785181       -0.93210979776373
H           -3.48539420753669        1.85751308406311        0.87247285418799
H           -1.14338924903503       -3.02566374307030        0.85890938556350
H           -1.13746673915223       -2.99569318225586       -0.92862220506881
H           -2.55040979073441       -2.41453584246675       -0.03053356982743
H            1.19667778196767       -2.84029310771903       -0.05062805835511
25
 energy: -42.145502733427 gnorm: 0.010513436893 xtb: 6.6.1 (8d0f1dd)
C            3.49057036259535        1.04059129882406        0.03217472760169
N            2.43471800840615        0.06642548947822       -0.01120159179176
C            2.58987422896275       -1.26689693976355       -0.03055691293065
N            1.37066918918022       -1.84932359983074       -0.03490022249892
C            0.40022337200132       -0.86467220969468       -0.01690240666556
C            1.07777453331297        0.36199321284582        0.00347123883078
C           -0.54326245211973        2.08868681379796        0.02813373536879
O            0.73152263088079        1.63950606133670        0.03403117379120
N           -1.58968391488280        1.24765745081645        0.04728221120768
C           -3.03967243644281        1.39478068338952       -0.00531653172007
C           -1.79012756884608       -0.07553433536447        0.08791947550373
O           -3.16985007453669       -0.02884451723478        0.00606503549407
N           -0.94313394806925       -1.12465955276415       -0.00915771400141
C           -1.46553715030413       -2.47565088089142       -0.03007833684654
H            3.80899259346815        1.21668464887168        1.06229822735195
H            4.34046167194490        0.68440653556647       -0.54737068007703
H            3.12788601515588        1.97745267102195       -0.38672968496986
H            3.52426165153477       -1.78392996981816       -0.04918357913116
H           -0.66151042689153        3.14413342601931        0.07216972684848
H           -3.41451605876316        1.83870972976919       -0.92940763075343
H           -3.48263007408305        1.86310554850382        0.87599070344683
H           -1.14177665211037       -3.02973898792151        0.85272772969847
H           -1.14151097906011       -2.99197399001022       -0.93486749969413
H           -2.55126949542895       -2.41466498665398       -0.02977876236352
H            1.19795848819520       -2.84000505869019       -0.05564081379262
25
 energy: -42.145626990512 gnorm: 0.006945231728 xtb: 6.6.1 (8d0f1dd)
C            3.49090582636970        1.04088277616900        0.03491126797120
N            2.43737315026467        0.06461325935834       -0.01401307884764
C            2.59119818294690       -1.26868207609820       -0.03273150083473
N            1.37103282790002       -1.84961000934652       -0.03658992992514
C            0.40076095030054       -0.86413946680938       -0.02035424776009
C            1.08068356343885        0.36066945578861       -0.00008556897166
C           -0.54147899070043        2.08490612971546        0.01969819332689
O            0.73499807793714        1.64083413893075        0.03026378912080
N           -1.59242174620923        1.24779762102699        0.05182665917711
C           -3.04166632090208        1.39395959684092       -0.00239805487773
C           -1.79142098952255       -0.07693465321234        0.10656375248218
O           -3.17234927070124       -0.02933483596587        0.01627544636967
N           -0.94229692566148       -1.12377143880598       -0.00831925462878
C           -1.46544968862281       -2.47436834876193       -0.03221143890991
H            3.79426095207819        1.22769857514875        1.06789851689046
H            4.34947859169691        0.68097975230383       -0.52913105405278
H            3.13307225688680        1.97356934562438       -0.39758357510964
H            3.52545487977765       -1.78594390272108       -0.05113951091180
H           -0.66108104926366        3.14795507157957        0.06276068552646
H           -3.41604120580942        1.83258973410595       -0.92925020301660
H           -3.48473452399335        1.86720135945108        0.87632306537561
H           -1.14093490859305       -3.03280178959029        0.84759125500375
H           -1.14462118873349       -2.98763489401581       -0.93984381531989
H           -2.55129912114677       -2.41219180926333       -0.02925248301738
H            1.19700818436198       -2.84000504984958       -0.06003729715333
