25
 energy: -43.835532901137 gnorm: 0.103068641187 xtb: 6.6.1 (8d0f1dd)
C            3.23898627043181        1.17951239446123        0.08496171685520
N            2.31819830761139        0.08204920814209        0.03869809093369
C            2.60086157940817       -1.24965129104160        0.03059156110234
N            1.42224121332989       -1.92782219081133        0.00095815401861
C            0.39630049989483       -1.05087050803125       -0.00805857794723
C            0.94106590623960        0.22533271406649        0.01589962592224
C            0.10488955758960        1.40866615355136       -0.00603273578971
O            0.49411895555887        2.55325240418692       -0.00405718960380
N           -1.25656274409337        1.06169081610010       -0.03083867925375
C           -2.22473398229747        2.15324180506029       -0.04968205463628
C           -1.81941915821097       -0.19573011283814       -0.04698016249232
O           -3.00477021366578       -0.37921020051175       -0.07005171770773
N           -0.92567718352933       -1.29463353943286       -0.03695845461970
C           -1.46318999193685       -2.64112955367499       -0.06044208536230
H            3.71192808974437        1.23181935200460        1.06653721947268
H            4.00906933988302        1.05382072906036       -0.67441088612173
H            2.68904773246700        2.11029349214039       -0.09224723713865
H            3.55773764231798       -1.78064218679452        0.04312343940878
H           -1.67892808127927        3.09171084742600       -0.02496731969837
H           -2.83105884440896        2.09331105155497       -0.95279446099159
H           -2.88285941860983        2.07607860061258        0.81490083883947
H           -1.16161978720871       -3.19111915034993        0.83200039939525
H           -1.13646497239192       -3.17018817701495       -0.95668433985197
H           -2.54860238279455       -2.55536084233531       -0.07488461382619
H            1.36397596497068       -2.93359019098055       -0.01338541389588
25
 energy: -43.839092627457 gnorm: 0.033534446348 xtb: 6.6.1 (8d0f1dd)
C            3.24665439463365        1.18163830656476        0.08707355600461
N            2.32118606270651        0.09213163960533        0.03577863667094
C            2.60701458017148       -1.25422872370645        0.03007433662206
N            1.41443753208315       -1.93560487001672        0.00090988427823
C            0.39721408989392       -1.05128382533391       -0.00861519171355
C            0.93637438326640        0.22707880936076        0.01405498888207
C            0.11136636249893        1.39655002706442       -0.00644835059558
O            0.49405829094953        2.56561337221012       -0.00577956196346
N           -1.26142955298685        1.05016155893797       -0.03108243351046
C           -2.22191580112011        2.14561943063058       -0.04947396725814
C           -1.82392842626438       -0.19769429715869       -0.04742519578767
O           -3.02018106633526       -0.38233772835236       -0.07036060134457
N           -0.93516336285497       -1.29469359287066       -0.03721711082718
C           -1.46705838730042       -2.63856655388388       -0.06035236412817
H            3.72435785309857        1.23762791314237        1.06925013010563
H            4.01667024125289        1.06054556963981       -0.67631673509314
H            2.69033239702352        2.10311272971433       -0.08857406488582
H            3.55613459040896       -1.75231122134320        0.04367418283013
H           -1.66242067340609        3.07765728764354       -0.02474042317367
H           -2.82875851909126        2.09231190137746       -0.95342698197533
H           -2.88059178190794        2.07516458700126        0.81605753712948
H           -1.16055986012426       -3.18874925714613        0.83162036722383
H           -1.13533423462137       -3.16812291698007       -0.95586703228511
H           -2.55239198954300       -2.55168048346351       -0.07487240311897
H            1.34846717658858       -2.93910803808692       -0.01274608507509
25
 energy: -43.839422810317 gnorm: 0.015993671959 xtb: 6.6.1 (8d0f1dd)
C            3.24125283445691        1.17907111290837        0.08480423249694
N            2.32173178877919        0.09182264885796        0.03358802167982
C            2.61251669871294       -1.26397875575570        0.03208225816435
N            1.41423484797589       -1.94030217200273        0.00165934057372
C            0.40340210605979       -1.05145760567312       -0.00732304204998
C            0.93435879482996        0.22853729931398        0.01501770658177
C            0.12105035371857        1.39110319908828       -0.00351237224610
O            0.50038407562633        2.56904665990062       -0.00184582156054
N           -1.26221695257191        1.05590154326027       -0.02982783185261
C           -2.22648172706825        2.15147601654705       -0.04953181819267
C           -1.81322760488280       -0.19033631589052       -0.04658126360165
O           -3.01219992074198       -0.37878023137440       -0.07052539600923
N           -0.93335718232986       -1.29148141251679       -0.03641404984280
C           -1.46049981713763       -2.63641869792124       -0.06053554835564
H            3.71111565389979        1.23238048910138        1.07062826665740
H            4.01239725354958        1.05037575544560       -0.67600949148974
H            2.68659003080370        2.10030602039093       -0.09577778637816
H            3.55440797772483       -1.75768245248041        0.04373775968371
H           -1.68706462509533        3.09658163456993       -0.02498747544969
H           -2.83475433129780        2.09342564659922       -0.95235536545504
H           -2.88780523139438        2.07638558224346        0.81359984150154
H           -1.15590319367368       -3.19076855915163        0.83061048939880
H           -1.13048119120003       -3.16903890052341       -0.95600278240879
H           -2.54546110610150       -2.55383096658404       -0.07517645769764
H            1.35054476637785       -2.94150591380284       -0.01412629713669
25
 energy: -43.839656823561 gnorm: 0.009436029411 xtb: 6.6.1 (8d0f1dd)
C            3.24067735344358        1.18259652015283        0.08699398239490
N            2.32008572964057        0.09486422647625        0.03425579892622
C            2.61184694739278       -1.26101612396378        0.03161175359971
N            1.41487498952601       -1.93689026312034        0.00139759736251
C            0.40260491329428       -1.05206653195810       -0.00790617488827
C            0.93152145082860        0.22941742379418        0.01463897863788
C            0.11817714792382        1.38754419264846       -0.00716611726733
O            0.48996564528616        2.56578190289959       -0.00722519195455
N           -1.26584067365229        1.05168464606406       -0.03205516607288
C           -2.22201172363124        2.15012067884446       -0.04978320360590
C           -1.81411600291765       -0.19404074596011       -0.04741618148099
O           -3.01241580379239       -0.38483333838256       -0.07009627096558
N           -0.93499802850926       -1.29426795890241       -0.03704146361147
C           -1.46571934383411       -2.63777583873168       -0.05991450907288
H            3.71791813493241        1.23332137588427        1.06915375326753
H            4.01026136892506        1.05940531753123       -0.67606474688946
H            2.68955750026053        2.10812977369182       -0.08597418837066
H            3.55507541205739       -1.75683338500822        0.04182163803804
H           -1.66636197429373        3.08547844698990       -0.02545318153902
H           -2.82945485979535        2.09582660344057       -0.95334910025699
H           -2.87962285295529        2.07849130837851        0.81644054089444
H           -1.16404267371566       -3.19175874866299        0.83242303891942
H           -1.13907007015298       -3.17181718188998       -0.95575159528002
H           -2.55098685020482       -2.55262506316111       -0.07433129264941
H            1.35660856296377       -2.93790561250466       -0.01401358112418
25
 energy: -43.839668031023 gnorm: 0.006039875810 xtb: 6.6.1 (8d0f1dd)
C            3.24608301344316        1.17885722773303        0.08495695072565
N            2.32058055726831        0.09351630476975        0.03480874179462
C            2.60806184567673       -1.26049244638589        0.03343910282704
N            1.41129216191918       -1.93442092583060        0.00226565103809
C            0.39983157967617       -1.04998629357540       -0.00788700500897
C            0.93186423637388        0.23113579748309        0.01547710485687
C            0.11807030456168        1.39089696328296       -0.00424414439348
O            0.48938562580660        2.56658394630673       -0.00224065292134
N           -1.26695653867944        1.05333295857807       -0.03018512259941
C           -2.22557955088419        2.14734990056572       -0.04910633707614
C           -1.81717269131704       -0.19243335318794       -0.04703862849285
O           -3.01526764447975       -0.38217337934992       -0.07063103348502
N           -0.93689336920069       -1.29199934648480       -0.03730097334277
C           -1.46435624189443       -2.63606056229696       -0.06138605056850
H            3.72309251660078        1.23710298811456        1.06720544748455
H            4.01818769575309        1.05408985851208       -0.67583026341452
H            2.69429437587855        2.10276176856341       -0.09482306588461
H            3.55344249209384       -1.75838915204682        0.04468107798138
H           -1.66949859732133        3.08154837927376       -0.02352157841058
H           -2.83069875617327        2.09048466348653       -0.95397797029755
H           -2.88483813976756        2.07288403682766        0.81559023066299
H           -1.15780284795398       -3.18758439319964        0.83054982185407
H           -1.13227775016805       -3.16567974095693       -0.95755503848058
H           -2.55025054106497       -2.55407829257485       -0.07609922508738
H            1.35194056287291       -2.93641528305740       -0.01195192275050
25
 energy: -43.839726646292 gnorm: 0.003702128309 xtb: 6.6.1 (8d0f1dd)
C            3.24245373802038        1.17959256182942        0.08743990514582
N            2.32088144768696        0.09196525032434        0.03387700058145
C            2.60929883375780       -1.26143993275916        0.03072506790423
N            1.41283559655776       -1.93651504789323       -0.00010573030192
C            0.40088497272208       -1.05236323601703       -0.00889876370062
C            0.93258460013572        0.22917599517281        0.01400706788860
C            0.12135302426659        1.39060589568987       -0.00620526892413
O            0.49455997884069        2.56578334479862       -0.00531113574260
N           -1.26505905828637        1.05414877712652       -0.03123664418414
C           -2.22384161497101        2.14919042347531       -0.04990250093727
C           -1.81561957151585       -0.19211379235680       -0.04686219930386
O           -3.01405562046586       -0.38115407650743       -0.06969049203452
N           -0.93606067199075       -1.29312493591879       -0.03700072979121
C           -1.46433947565581       -2.63714056869232       -0.05949662902716
H            3.71708030063157        1.23538787123230        1.07105780162833
H            4.01414007931756        1.05908105687529       -0.67452172064962
H            2.68598265971790        2.10149854112785       -0.08924784111209
H            3.55583980261689       -1.75674185464609        0.04143999236663
H           -1.67176267213591        3.08587272365662       -0.02590326407666
H           -2.83139934222202        2.09280871695094       -0.95308268297635
H           -2.88276463017942        2.07642627409828        0.81508408725083
H           -1.15860810651548       -3.18909927851654        0.83247034086853
H           -1.13385930129713       -3.16895879189291       -0.95494676782760
H           -2.54991878808363       -2.55301632739026       -0.07374415603700
H            1.35392811806751       -2.93903796521742       -0.01474961999661
25
 energy: -43.839721602142 gnorm: 0.003679908806 xtb: 6.6.1 (8d0f1dd)
C            3.24234588862091        1.18071437720524        0.08484318429065
N            2.32090890245429        0.09340368382426        0.03437469455442
C            2.61023460585293       -1.26077650031511        0.03355918263271
N            1.41407983870920       -1.93632462823932        0.00318869380500
C            0.40195348634822       -1.05262570891003       -0.00695535945332
C            0.93200072936359        0.22985035983038        0.01559339641518
C            0.12091774898662        1.39005821175009       -0.00519476884878
O            0.49156555089327        2.56686005056150       -0.00463566705080
N           -1.26618887685694        1.05316094827298       -0.03092913625695
C           -2.22360993938577        2.14987477717052       -0.04905319862345
C           -1.81477583809502       -0.19335990317752       -0.04738190495019
O           -3.01314381774762       -0.38398495218849       -0.07137126409026
N           -0.93525629062576       -1.29406463228513       -0.03678548940978
C           -1.46468937536138       -2.63797477828132       -0.06138687268125
H            3.71885313785030        1.23378168663306        1.06745217587758
H            4.01148692004059        1.05538631174975       -0.67862771436728
H            2.69063478291188        2.10575262237524       -0.09101762483294
H            3.55583265924929       -1.75533208753387        0.04477492897703
H           -1.67195737803299        3.08722179236293       -0.02384017151909
H           -2.83107910041705        2.09586675194564       -0.95253367756483
H           -2.88284063857491        2.07758253586031        0.81579685247208
H           -1.16267851835394       -3.19259336542183        0.83026676313659
H           -1.13624334306961       -3.17061565431946       -0.95722830039780
H           -2.54992423572087       -2.55236357004804       -0.07668087433831
H            1.35610739998095       -2.93866670427158       -0.01103273076513
25
 energy: -43.839744217749 gnorm: 0.001839422935 xtb: 6.6.1 (8d0f1dd)
C            3.24320021770912        1.18014415931073        0.08671118867973
N            2.32100542075396        0.09314379198934        0.03411699537720
C            2.60925426994908       -1.26117515576418        0.03168737069727
N            1.41287794528550       -1.93563960835751        0.00051801094212
C            0.40128005786439       -1.05170389575246       -0.00832452760750
C            0.93191508124864        0.23046435660022        0.01470110036425
C            0.12071987010503        1.39043136061347       -0.00564383113425
O            0.49058142612684        2.56707749956730       -0.00470949221306
N           -1.26658410212533        1.05319946723740       -0.03109065759634
C           -2.22407489893902        2.14891947126212       -0.04986706996731
C           -1.81545076377557       -0.19282526971171       -0.04697007848406
O           -3.01375365193300       -0.38324937739114       -0.06988960219127
N           -0.93578493915953       -1.29309023092038       -0.03697012623703
C           -1.46422642858478       -2.63709171798736       -0.05990494021103
H            3.71836242742651        1.23405471982583        1.06991423635590
H            4.01441360177093        1.05584860555438       -0.67480270504971
H            2.69165901231529        2.10502632922718       -0.09020316588325
H            3.55433241058762       -1.75736448177071        0.04205800929932
H           -1.67106224031324        3.08541997709969       -0.02528108047000
H           -2.83087875482156        2.09315405028438       -0.95375806864933
H           -2.88306711915571        2.07621412150190        0.81522217820770
H           -1.15953101601162       -3.18956101533628        0.83213243720218
H           -1.13518381484321       -3.16923837636358       -0.95576572493217
H           -2.54972463216347       -2.55346045228933       -0.07391953475998
H            1.35425491970331       -2.93786670387910       -0.01476580472832
25
 energy: -43.839712448009 gnorm: 0.003930465573 xtb: 6.6.1 (8d0f1dd)
C            3.24195030826923        1.18004901782035        0.08548506553369
N            2.32129665718123        0.09136481912928        0.03436402028539
C            2.60909880727810       -1.26201697203440        0.03294467046213
N            1.41277300728704       -1.93640908771411        0.00260855232993
C            0.40079650055789       -1.05268555897985       -0.00784480742380
C            0.93247345838181        0.22901530138215        0.01487145805146
C            0.12251129763552        1.39018629485342       -0.00572396965891
O            0.49417431380668        2.56528765729396       -0.00457590814312
N           -1.26532229124142        1.05368936484818       -0.03093902609120
C           -2.22321846684674        2.14864142777150       -0.04882837011255
C           -1.81564412882890       -0.19194673788044       -0.04733330447411
O           -3.01397085035435       -0.38085964588407       -0.07071696176155
N           -0.93619751078234       -1.29291029802499       -0.03722086098434
C           -1.46478040909536       -2.63661820324205       -0.06128583799242
H            3.71824914836257        1.23859012397172        1.06807160111080
H            4.01308591000776        1.06031771495639       -0.67708855843214
H            2.68357756401721        2.10067951903455       -0.09187580792550
H            3.55542541883553       -1.75808894801213        0.04414673110040
H           -1.66968674470692        3.08456099686784       -0.02423775989875
H           -2.83067127616003        2.09268067600506       -0.95224550099373
H           -2.88194967425984        2.07531446618536        0.81642334069667
H           -1.15991503919613       -3.18884835588011        0.83076893636842
H           -1.13288296763764       -3.16727914690338       -0.95688633534552
H           -2.55045805472289       -2.55297339530553       -0.07695112507981
H            1.35381932123218       -2.93890940570849       -0.01073512461040
25
 energy: -43.839745628752 gnorm: 0.001564686221 xtb: 6.6.1 (8d0f1dd)
C            3.24280350558890        1.17989463918933        0.08599232607045
N            2.32123464044909        0.09220005227122        0.03422626997504
C            2.60936625811897       -1.26127585484148        0.03233749875286
N            1.41323557661488       -1.93602962430667        0.00177021536938
C            0.40108209675938       -1.05248365015086       -0.00795092129314
C            0.93219234321813        0.22961358719771        0.01487905691632
C            0.12185932941634        1.39042416939287       -0.00557543857250
O            0.49276544990328        2.56609029975010       -0.00464157873525
N           -1.26604867447252        1.05357603337908       -0.03098816426939
C           -2.22389958177971        2.14900407698883       -0.04936742726250
C           -1.81560967607162       -0.19241300411390       -0.04715748869019
O           -3.01389842442658       -0.38207483007157       -0.07058108845205
N           -0.93594273377600       -1.29321584108335       -0.03699207002884
C           -1.46466038838301       -2.63712696143285       -0.06063945694336
H            3.71899106383521        1.23561478013034        1.06874602847269
H            4.01353322080904        1.05798549343389       -0.67659801278605
H            2.68757284560664        2.10254066235989       -0.09058042333149
H            3.55564072107319       -1.75669287268804        0.04329766076117
H           -1.67118684830229        3.08550341874018       -0.02467601710365
H           -2.83124634312936        2.09356654395840       -0.95288627670051
H           -2.88307931248251        2.07626745047260        0.81556723417111
H           -1.16024587813767       -3.19000578780372        0.83121824743306
H           -1.13434378673391       -3.16874085425570       -0.95630232947508
H           -2.55021059159481       -2.55288487173612       -0.07558557894914
H            1.35462948691709       -2.93850543022999       -0.01231714831788
25
 energy: -43.833326985217 gnorm: 0.077220439494 xtb: 6.6.1 (8d0f1dd)
C            3.24008503912949        1.19273405704527        0.08550183687916
N            2.33798089685775        0.08655738035880        0.03734703561386
C            2.62330262382859       -1.28381444315439        0.03122878644076
N            1.41140367115876       -1.91290796367987        0.00133479465787
C            0.40193324133799       -1.04270203839291       -0.00817109512457
C            0.94751571947640        0.23689764941762        0.01485595897736
C            0.11591636776314        1.41017679419368       -0.00708785689177
O            0.49070321089265        2.56474488110878       -0.00472305581912
N           -1.26236788227238        1.06114034350951       -0.03081190707547
C           -2.23042372433217        2.15142020065124       -0.04933451950603
C           -1.81984924015534       -0.19133766355315       -0.04698756488371
O           -3.00928308042666       -0.38007691388850       -0.07000582469640
N           -0.92515919080984       -1.28716546888653       -0.03705361141349
C           -1.45650120721992       -2.63590786002952       -0.06058830399634
H            3.71130951788902        1.24892551960465        1.06802869646820
H            4.01024506883553        1.07333362984215       -0.67496698513975
H            2.67829786558295        2.12213805503767       -0.09332727905551
H            3.54485134706215       -1.92370459185122        0.04358014949656
H           -1.68678583244631        3.09069815653385       -0.02440348820615
H           -2.83781696259432        2.09230381110341       -0.95236533268835
H           -2.88926595817628        2.07465072624477        0.81524673722354
H           -1.15262700649843       -3.18637537642813        0.83158968705455
H           -1.12733514890406       -3.16524626711748       -0.95650998469891
H           -2.54168959766396       -2.55438627277662       -0.07518145819469
H            1.35460179920036       -2.91852810339199       -0.01269129711326
25
 energy: -43.836638823704 gnorm: 0.024845968327 xtb: 6.6.1 (8d0f1dd)
C            3.24860950135101        1.18634622184763        0.08716385932946
N            2.33437955735457        0.08851832295335        0.03378004951320
C            2.61542886483858       -1.27572951130018        0.03035021976297
N            1.40490278972597       -1.92851433136958        0.00127845625315
C            0.39828728126406       -1.04728904049795       -0.00877805865618
C            0.94290594105786        0.23169054657906        0.01319450998787
C            0.12177598384901        1.39681374275746       -0.00693276820803
O            0.49069862564726        2.56958523542801       -0.00654937325211
N           -1.26221360282247        1.05086393273055       -0.03098150761694
C           -2.22333760720510        2.14518109881756       -0.04907283435255
C           -1.82256196487989       -0.19418777186110       -0.04741592311717
O           -3.01911326042873       -0.38140025725616       -0.07027324180433
N           -0.93543855137373       -1.28915773181126       -0.03727417881565
C           -1.46206626407382       -2.63470857951901       -0.06051785792556
H            3.72498057103890        1.25180582640332        1.06971968563485
H            4.02065495157375        1.07805160752424       -0.67628122437363
H            2.68255358339865        2.10414545995012       -0.08898754808277
H            3.53632543413019       -1.84077342736292        0.04443642262518
H           -1.66738200173157        3.07900067921332       -0.02415631827206
H           -2.83156074729608        2.09120866167319       -0.95252056164195
H           -2.88310140302556        2.07356438165015        0.81599442498578
H           -1.15305864848910       -3.18407593621846        0.83135695529277
H           -1.12763349531213       -3.16325249753874       -0.95586872062366
H           -2.54738566910810       -2.55140565799231       -0.07518914643314
H            1.34239166803159       -2.93271273329918       -0.01197120190116
25
 energy: -43.836954794192 gnorm: 0.012678209533 xtb: 6.6.1 (8d0f1dd)
C            3.24530423978816        1.18529639078629        0.08551773925286
N            2.34046331296094        0.08114493867955        0.03272061105598
C            2.61967675734388       -1.28822309496831        0.03229422970023
N            1.40588321990232       -1.93405307669203        0.00184529762120
C            0.40489921698992       -1.04302765518735       -0.00783115416522
C            0.94809461305936        0.23358501580596        0.01395858920335
C            0.12964090968018        1.39647911915784       -0.00519660970953
O            0.49564202397702        2.57530381340564       -0.00382510384475
N           -1.26092408452846        1.05784573556639       -0.03027689437724
C           -2.23090646430918        2.14807975038559       -0.04915096343110
C           -1.81432956890960       -0.18731228392900       -0.04683735189704
O           -3.01223188030566       -0.37853523512218       -0.07022407110906
N           -0.93089646005065       -1.28286727079576       -0.03672039089638
C           -1.45261882824739       -2.63007199713124       -0.06059231609641
H            3.71508057695832        1.25216334612467        1.07094933564574
H            4.01753218378480        1.07532012858699       -0.67671303366662
H            2.67767524839672        2.10238459955504       -0.09378085557030
H            3.52400701768531       -1.86436650319958        0.04420678406272
H           -1.69267338534125        3.09270484875517       -0.02449973107763
H           -2.84114124096308        2.08931602066017       -0.95133576820863
H           -2.89317797779249        2.07171032464315        0.81394639579099
H           -1.14490758751443       -3.18253165761064        0.83047687852759
H           -1.11943344628881       -3.16097311458803       -0.95571149268031
H           -2.53778958341117       -2.55106320021306       -0.07533349072938
H            1.33617272465034       -2.93474070117419       -0.01338251509271
25
 energy: -43.837125562288 gnorm: 0.007519128576 xtb: 6.6.1 (8d0f1dd)
C            3.24193408476693        1.19161615678878        0.08664996502985
N            2.34004188663494        0.08450633741423        0.03314552289105
C            2.62391434120133       -1.28519849851860        0.03214852692491
N            1.41033208374620       -1.93077893095709        0.00187657889802
C            0.40572705896714       -1.04297712718124       -0.00804073224683
C            0.94604996153371        0.23451175197026        0.01384534626793
C            0.12626412055891        1.39293153173441       -0.00734662135288
O            0.48624582846188        2.57316193887056       -0.00675320721532
N           -1.26445880356419        1.05358435245735       -0.03159447721823
C           -2.22565572271321        2.14894930808744       -0.04937326097077
C           -1.81544443336808       -0.19165364327428       -0.04729271796331
O           -3.01336439727155       -0.38502321488771       -0.07003398115232
N           -0.93182578899107       -1.28674151205744       -0.03699672936094
C           -1.45832740760738       -2.63311032563815       -0.06015080754201
H            3.71565553431028        1.25217786152805        1.07016923742684
H            4.01258538210691        1.07993357647703       -0.67636014102476
H            2.67848963080060        2.11356385155922       -0.08831984482014
H            3.52989352593735       -1.86809789708413        0.04225273297910
H           -1.67351212189057        3.08559964377557       -0.02468714243840
H           -2.83448928939137        2.09534168070024       -0.95271214587936
H           -2.88520484376072        2.07765493341619        0.81610246835882
H           -1.15575721527799       -3.18762999433530        0.83154141298946
H           -1.13053756957703       -3.16715077303753       -0.95554226103286
H           -2.54386796994535       -2.55167107497476       -0.07476974868633
H            1.34435366184743       -2.92993169133199       -0.01325385455319
25
 energy: -43.837178916230 gnorm: 0.004748531468 xtb: 6.6.1 (8d0f1dd)
C            3.24714582074378        1.18735580242917        0.08554128943500
N            2.33825911555438        0.08566625828104        0.03340117393410
C            2.62067711961417       -1.28229746489371        0.03333074184423
N            1.40710107923196       -1.92809568022714        0.00232298739046
C            0.40243747555684       -1.04131231136696       -0.00817521962459
C            0.94386987710252        0.23619378752033        0.01424788833763
C            0.12550341090470        1.39472404433104       -0.00596237285733
O            0.48669836208332        2.57325854095282       -0.00448104698128
N           -1.26589179860783        1.05473911331118       -0.03062428222670
C           -2.22859589477329        2.14692046774138       -0.04885580754306
C           -1.81791541032090       -0.19004314232354       -0.04713322863470
O           -3.01597974624005       -0.38169352714033       -0.07035289750843
N           -0.93461491948079       -1.28553997296264       -0.03730069228088
C           -1.45795375293891       -2.63210692085561       -0.06114151351618
H            3.72198384920495        1.24956551912477        1.06865515016780
H            4.01939118238293        1.07177746968897       -0.67588130276902
H            2.68522919196614        2.10867951867714       -0.09331458503844
H            3.53196935676611       -1.86200338766462        0.04477132536797
H           -1.67822556078889        3.08419642028313       -0.02356328035912
H           -2.83587024199322        2.08941999333416       -0.95279519656550