25
 energy: 0.000000000000 xtb: 6.6.1 (8d0f1dd)
C            3.23720132972391        1.16630909158653        0.08434468864950
N            2.29877796055224        0.07527476373246        0.03981602671198
C            2.58028186251803       -1.21425391179017        0.03006175752192
N            1.43813944744728       -1.93419254010258        0.00098261751768
C            0.39035684826767       -1.05887462812143       -0.00790371763344
C            0.93510047688824        0.21347817468824        0.01709077332874
C            0.09450143016486        1.40504290868848       -0.00410946993748
O            0.49712746915594        2.54126690785742       -0.00342325656480
N           -1.25076628431515        1.06271869620815       -0.03085477937476
C           -2.21907191394203        2.15522079838987       -0.05001256521996
C           -1.81739470187490       -0.20012724136556       -0.04692818139228
O           -2.99983858926755       -0.37846413507442       -0.07008877579474
N           -0.92618577614240       -1.30210203518959       -0.03682761236648
C           -1.46982251276835       -2.64643077634382       -0.06029819901142
H            3.71247229913541        1.21471443890471        1.06488839270555
H            4.00791460421487        1.03430799217987       -0.67357688121503
H            2.69909982127087        2.09770098766290       -0.09130154035862
H            3.56654087521359       -1.63682977417947        0.04233139674524
H           -1.67107945562430        3.09322822573871       -0.02552706696334
H           -2.82428927394145        2.09428605349656       -0.95318074103337
H           -2.87644002486466        2.07745706351925        0.81450059976605
H           -1.17061985538665       -3.19584861009707        0.83242224714061
H           -1.14560246782873       -3.17511580834413       -0.95688266944647
H           -2.55549768731684       -2.55659960601237       -0.07459039105944
H            1.38130842369251       -2.94313824728853       -0.01389874052104
25
 energy: -2.570771737942 xtb: 6.6.1 (8d0f1dd)
C            3.24018052191645        1.19740723651229        0.08565966865639
N            2.33257854774067        0.08559556120126        0.03774989254837
C            2.61283471880701       -1.26884596757245        0.03092470277780
N            1.42566891956374       -1.93045698134081        0.00093623097319
C            0.40410191773806       -1.03923189864672       -0.00819531784719
C            0.94602192829332        0.23432891905064        0.01507299155031
C            0.10062123094381        1.40829855047658       -0.00551678512140
O            0.48514110429004        2.57785001741614       -0.00566448301800
N           -1.26326280467296        1.06112845082601       -0.03080615763038
C           -2.23638412357490        2.14986541880281       -0.04893784905638
C           -1.81997141508100       -0.19272266121263       -0.04699434255592
O           -3.01511295579308       -0.38240806723172       -0.06986764772364
N           -0.92513419438537       -1.28681077735233       -0.03705663745965
C           -1.45293002344237       -2.63321164416949       -0.06066718966116
H            3.71057413286238        1.26540101011302        1.06916936787129
H            4.01086808706451        1.08342234999807       -0.67505407546251
H            2.68077456195553        2.11954867128522       -0.09307060014953
H            3.54875828634379       -1.88809208458985        0.04350404744518
H           -1.69087236321119        3.09053854942633       -0.02410777153465
H           -2.84426892882115        2.09127898808753       -0.95187449973553
H           -2.89582597764495        2.07307912245816        0.81548852915956
H           -1.14438417822977       -3.18199567362171        0.83123198687158
H           -1.11912715409840       -3.16077231943312       -0.95639333289968
H           -2.53896368046590       -2.55413322291912       -0.07529943368131
H            1.36032814687421       -2.93003275882012       -0.01319738212214
25
 energy: 14.530322061637 xtb: 6.6.1 (8d0f1dd)
C            3.23997345035952        1.23767236637797        0.08666750716218
N            2.37717786622414        0.09112819940588        0.03387065805495
C            2.65427849884936       -1.32736096656166        0.03226130293546
N            1.40979487083226       -1.91094169506543        0.00141299853957
C            0.41825191663768       -1.01216663485130       -0.00826579003076
C            0.96323158313545        0.26036264210884        0.01306831039450
C            0.11296765171657        1.40923471588318       -0.00678470999661
O            0.45633371124467        2.60558084062128       -0.00892427401133
N           -1.27648318319774        1.06217173313905       -0.03047650482782
C           -2.25538582059537        2.14661762867700       -0.04739537857785
C           -1.81647156841777       -0.18301037519971       -0.04679393908176
O           -3.01667898739815       -0.38728414963711       -0.06933702864854
N           -0.92355076398410       -1.26493770047069       -0.03718222850764
C           -1.42843664118090       -2.61587987163961       -0.06121972575620
H            3.70509121296288        1.33759392594559        1.07231814271783
H            4.01562516230719        1.15677177665917       -0.67390982432446
H            2.65064274785128        2.14642624961477       -0.09644032464218
H            3.48935451135461       -2.24703244011581        0.04400831610481
H           -1.71850367635233        3.09303811494910       -0.02207470164482
H           -2.86760384224903        2.08700914600639       -0.94911771898981
H           -2.91833104515460        2.06673365295130        0.81586619622512
H           -1.10954379571881       -3.16319540230768        0.82987243722429
H           -1.08378641408808       -3.14122130670137       -0.95611105526072
H           -2.51520644268476       -2.55292981007475       -0.07634311395310
H            1.34947330251848       -2.90535185097039       -0.01193563891053
25
 energy: 38.061982511279 xtb: 6.6.1 (8d0f1dd)
C            3.23184787033653        1.26389771477754        0.08648182831507
N            2.40589710421343        0.07919949216049        0.03100952683338
C            2.68045516087377       -1.38096557031746        0.03361736827947
N            1.40265502988444       -1.90347845530752        0.00246588559665
C            0.42687242443703       -0.99646059265736       -0.00807627479343
C            0.97981130702401        0.27283579059759        0.01228032141073
C            0.12525990831926        1.41838772601033       -0.00794209035400
O            0.43839829583841        2.62029783046923       -0.01207432574191
N           -1.27984309177594        1.07336444472509       -0.03024635189315
C           -2.26928771073327        2.14935723376532       -0.04578657454611
C           -1.81150415090951       -0.17327618442401       -0.04646998362404
O           -3.01090747175295       -0.38696866272660       -0.06869630763347
N           -0.91665627451994       -1.24640834356384       -0.03714758040553
C           -1.40407192991306       -2.60116489293553       -0.06180637888679
H            3.69152139277221        1.40210536748146        1.07244689457990
H            4.01708161216329        1.22695972629679       -0.67036550632231
H            2.61471477699460        2.15798319584658       -0.10133727113848
H            3.42903823587730       -2.52241483199771        0.04368901267801
H           -1.74710331272130        3.10320029226395       -0.01990824275509
H           -2.88508637834974        2.08353870237467       -0.94572967353641
H           -2.93468566259529        2.06093603044863        0.81596109246432
H           -1.07603496898046       -3.14279963929218        0.82943853620090
H           -1.04958239503385       -3.11996839043582       -0.95670736056415
H           -2.49147860772735       -2.55164933495679       -0.07746490273825
H            1.34490314125081       -2.89747985985881       -0.01059772923074
25
 energy: 53.551017704164 xtb: 6.6.1 (8d0f1dd)
C            3.22380412699090        1.27762920764170        0.08603109811587
N            2.41494889599358        0.07585264107396        0.02964572281285
C            2.69151939423076       -1.40277978718292        0.03338909114659
N            1.40532866589567       -1.89758367742838        0.00295960470038
C            0.43047980864001       -0.98780750131874       -0.00773567853282
C            0.98805477565268        0.27935259040274        0.01281894986972
C            0.12986388479638        1.42961433155058       -0.00803465284446
O            0.42953893311300        2.62676541545627       -0.01382909089910
N           -1.27852888441193        1.08237755859666       -0.02998178204507
C           -2.27499341646064        2.15228600399156       -0.04505063922491
C           -1.80923424687415       -0.16890570063545       -0.04608494843614
O           -3.00594727593565       -0.38602496576058       -0.06822879701506
N           -0.90987864334399       -1.23692628854777       -0.03680728727580
C           -1.39040563985286       -2.59462643751826       -0.06200315907745
H            3.67718148287862        1.42921021268356        1.07179093568236
H            4.01146563766723        1.25933387964449       -0.66739453579526
H            2.59470816770681        2.16250088581170       -0.10558133705130
H            3.40202915418828       -2.67352149566382        0.04392883244645
H           -1.76327341288618        3.11097403124535       -0.01879271687049
H           -2.89149985183453        2.08121484819185       -0.94443761448310
H           -2.94061352336382        2.05730464270769        0.81621861482798
H           -1.05892175031724       -3.13259129811967        0.82940330435247
H           -1.03198607164075       -3.10918495035543       -0.95699769909028
H           -2.47808534874212       -2.55302691921951       -0.07800658906487
H            1.34665944288240       -2.89240843850350       -0.01018571405395
25
 energy: 62.835177849323 xtb: 6.6.1 (8d0f1dd)
C            3.22161235757894        1.28813420384147        0.08629780217012
N            2.41487205520734        0.08475289417659        0.02693081302625
C            2.69672659397185       -1.40063621930703        0.02478348062730
N            1.41199009427110       -1.88745716015886       -0.00008834088587
C            0.43144521430041       -0.98116042025304       -0.00836689578434
C            0.99034379221214        0.28571345102633        0.01391254531178
C            0.12794794261192        1.43862459319761       -0.00584964683035
O            0.41998549035851        2.63151005489979       -0.01399684979333
N           -1.27797463580466        1.08502852217435       -0.02936787700415
C           -2.27753667964389        2.15212607624414       -0.04531929583617
C           -1.80981638067335       -0.16988783694863       -0.04548400894548
O           -3.00406454070120       -0.38769429916253       -0.06771034643883
N           -0.90579729325146       -1.23391683088031       -0.03603612931262
C           -1.38587614780975       -2.59340199469099       -0.06135193890114
H            3.67202509962465        1.43760691321887        1.07162237371770
H            4.00811748657280        1.27055777057112       -0.66554548173967
H            2.59306501023307        2.17055058955013       -0.10661500497027
H            3.39514823087453       -2.77404970843982        0.05212751524025
H           -1.76957990562904        3.11215037231662       -0.01906580072709
H           -2.89344819169813        2.07926655110744       -0.94493334428749
H           -2.94293281674113        2.05549653857454        0.81587430584549
H           -1.05470219261294       -3.13031374937125        0.83009536427925
H           -1.02794581359217       -3.10685854921309       -0.95639885415129
H           -2.47360143340915       -2.55396637769058       -0.07724062295158
H            1.35221096872206       -2.88314659603885       -0.01123984946388
25
 energy: 66.600613953405 xtb: 6.6.1 (8d0f1dd)
C            3.21294490675189        1.31686790645819        0.08815302753504
N            2.41127858029009        0.11150770359667        0.01619594123429
C            2.71508708202748       -1.38695842783055       -0.03181515965399
N            1.43498426350267       -1.85471010578545       -0.01581057782220
C            0.43654821153358       -0.96237867857055       -0.01072947400378
C            0.99164966730753        0.30532816345985        0.02047335918860
C            0.12068697677542        1.45789306267939        0.00778298405923
O            0.39565364519026        2.64279793749807       -0.01320051266793
N           -1.28190543849327        1.09183279502476       -0.02773352920246
C           -2.28578956095552        2.15341282925808       -0.04739647123156
C           -1.81028380084380       -0.17181104463666       -0.04357729632161
O           -3.00050864308690       -0.39335900820062       -0.06679126779775
N           -0.89753685807299       -1.22666938699305       -0.03229248807917
C           -1.37528287363722       -2.59031029048703       -0.05849070698547
H            3.66282093790580        1.45533039121627        1.07076804388921
H            3.99661102661519        1.29250097507331       -0.66218200865893
H            2.58855541977102        2.19668852670261       -0.10634958647721
H            3.37333042112974       -3.05323898543775        0.10188361809125
H           -1.78241242843777        3.11487105493400       -0.02111022372911
H           -2.90018156068024        2.07631736820675       -0.94749753725782
H           -2.95010230714089        2.05334306434110        0.81416321163239
H           -1.04543957139958       -3.12633003900390        0.83285793571286
H           -1.01907179303971       -3.10307436243371       -0.95339878899107
H           -2.46364362065178       -2.55574218721465       -0.07410893983741
H            1.38422162261145       -2.85508047311111       -0.01275964043080
25
 energy: 66.909597055225 xtb: 6.6.1 (8d0f1dd)
C            3.20275121903413        1.34676699599067        0.08452869179956
N            2.39533723881416        0.14866072643684        0.01993913022111
C            2.72993878285587       -1.34699294133797       -0.03271536339848
N            1.46641842857939       -1.81545305854418       -0.01784417538156
C            0.44049862942828       -0.94266668554094       -0.00789834349164
C            0.98717680574170        0.32479487957425        0.02389853426007
C            0.10637819503610        1.47751536163159        0.00302235392019
O            0.37164395007770        2.64964475560472       -0.01288928263158
N           -1.28562357220986        1.09912824668988       -0.02835037799922
C           -2.29393426850105        2.15497784298265       -0.04600769022330
C           -1.80996028852638       -0.17566069384053       -0.04321848230771
O           -2.99700404327587       -0.39810152386995       -0.06633672789827
N           -0.88874108220249       -1.22125830226485       -0.03162130091161
C           -1.36658003787137       -2.58870930557459       -0.05918762304157
H            3.65246334631865        1.46854066669266        1.06696412305613
H            3.98797361265577        1.30345028896306       -0.66017182703526
H            2.58992643603732        2.22783949809094       -0.11216991228220
H            3.35312883553928       -3.36042374158164        0.11124519010073
H           -1.79398373348626        3.11769769894156       -0.02013293481007
H           -2.90679608199697        2.07440320953002       -0.94629102128837
H           -2.95625967070771        2.05103336889416        0.81614210282413
H           -1.03861125401612       -3.12476168981211        0.83165637549922
H           -1.01194258538423       -3.10074879415056       -0.95394986314951
H           -2.45577790971369       -2.55722761180145       -0.07494212997249
H            1.43379335274609       -2.82342040296022       -0.01663553366372
25
 energy: 58.289158151664 xtb: 6.6.1 (8d0f1dd)
C            3.19448701446992        1.36191675012267        0.07727575434159
N            2.33959654172892        0.20606979683117        0.03359526065318
C            2.71830399324499       -1.21334386619736        0.00980442281228
N            1.51310522504822       -1.77908504788806       -0.00734033898810
C            0.43789759546736       -0.93618933395353       -0.00140099989608
C            0.96487786094294        0.33241631121415        0.02178318009897
C            0.07774671384115        1.48731676065168       -0.01290812875341
O            0.37016835008905        2.64830898610909       -0.01203766669606
N           -1.28482802147440        1.09959126732955       -0.02945193944413
C           -2.29508883907680        2.15383268891637       -0.04323501143258
C           -1.80872193042679       -0.18511740972545       -0.04449700549068
O           -2.99727097732570       -0.39534472921526       -0.06725686289206
N           -0.88714564201968       -1.22924220642231       -0.03401974376394
C           -1.37251305023839       -2.59548469071619       -0.06225253547860
H            3.65190860645345        1.45560072025887        1.06470616379733
H            3.98860877606668        1.27896084664355       -0.66259830311865
H            2.60224664997605        2.25272389310249       -0.11660400681107
H            3.37495119169835       -3.59950638404056        0.08073840334397
H           -1.79156922347944        3.11618169085776       -0.01752663830897
H           -2.90612626453054        2.07542768098214       -0.94358664136527
H           -2.95559939218126        2.05126594831288        0.81886819045607
H           -1.04462804281688       -3.13222265116543        0.82823359345166
H           -1.01772881797689       -3.10702781473165       -0.95741908094735
H           -2.46197129049010       -2.55712287146905       -0.07821220589186
H            1.50150727798225       -2.80089754706347       -0.01762394748165
25
 energy: 52.574097537021 xtb: 6.6.1 (8d0f1dd)
C            3.19095606788891        1.36744718042366        0.07970026667998
N            2.29582461575010        0.24238927727965        0.03624733689530
C            2.70498689757190       -1.06595248183172        0.03039070860033
N            1.54209226866149       -1.76265360814779       -0.00091316674688
C            0.43396581251514       -0.94044100336273       -0.00495849713888
C            0.94274838022353        0.33292408803885        0.01610340686652
C            0.04921157745972        1.48768406653455       -0.00795357173058
O            0.37775535212986        2.65124944727897       -0.00990552637099
N           -1.28610234255356        1.09872577820909       -0.02769064017838
C           -2.29859010747894        2.15279474387208       -0.04585963921580
C           -1.80746006316756       -0.19185544351909       -0.04584332491537
O           -2.99914111585197       -0.39086658122751       -0.06866105053539
N           -0.89178632679595       -1.23686813404460       -0.03772897326154
C           -1.38069539762322       -2.60068506903947       -0.06163169812170
H            3.65926692881973        1.44477699461877        1.06726896510145
H            3.98290576980449        1.25751206668047       -0.66333275769916
H            2.61802993375102        2.27280099022636       -0.11010158442160
H            3.44573171938086       -3.77947808514016        0.04684340053299
H           -1.78960778304721        3.11404491247932       -0.01907551280464
H           -2.90712925312422        2.07689714400728       -0.94744655492115
H           -2.95820831202176        2.05308665012515        0.81612491561061
H           -1.05092496301487       -3.13729136219879        0.82894945909621
H           -1.02561615993979       -3.11395698595848       -0.95631508960885
H           -2.46936090030668       -2.55777025769387       -0.07676404328848
H            1.53336170594136       -2.78548553886596       -0.01041291622943
25
 energy: 52.421764049746 xtb: 6.6.1 (8d0f1dd)
C            3.18835249793704        1.37491303671257        0.08337228049734
N            2.29116288043646        0.24900356316038        0.03918533102175
C            2.70730560297931       -1.01444745586706        0.03865848813612
N            1.54867360935761       -1.76035371768137        0.00500183079552
C            0.43700248349940       -0.94522943476802       -0.00653558439214
C            0.92779875734264        0.33845301940933        0.01361568510684
C            0.03642147638086        1.48628425026393       -0.00987254451648
O            0.37605555559020        2.65288187931900       -0.01357308234245
N           -1.29574827680628        1.10009171217660       -0.02963962348342
C           -2.30516904940124        2.15592719888436       -0.04554173928392
C           -1.80816297395599       -0.19286711960909       -0.04655644800757
O           -3.00005930467066       -0.39419801456950       -0.06825938823210
N           -0.89314800637549       -1.23774373541275       -0.03891807386503
C           -1.38411049048220       -2.60030875542048       -0.06253336075906
H            3.65825324349461        1.44577289773160        1.06766134997096
H            3.97286735266908        1.25175984664812       -0.66231056192059
H            2.62676799909248        2.28882899604548       -0.10827249772190
H            3.51429656843001       -3.87657469086211        0.03192135986936
H           -1.78845531722475        3.11319418432163       -0.01939480711520
H           -2.91272369002918        2.08159429081937       -0.94745103771547
H           -2.96181408531941        2.05797579922211        0.81874637168898
H           -1.05780446542155       -3.13921884560189        0.82798879285664
H           -1.03154535791185       -3.11639848983234       -0.95678443879909
H           -2.47248404444199       -2.55629513704475       -0.07825119809462
H            1.53848133980339       -2.77401648930104       -0.00522319149990
25
 energy: 52.333338456219 xtb: 6.6.1 (8d0f1dd)
C            3.18555477967229        1.37953507001785        0.08488133099827
N            2.29454763157525        0.24693957730921        0.03935171573689
C            2.70770216420065       -1.01197361950190        0.03943517558972
N            1.54019932796360       -1.76403569496311        0.00632081293129
C            0.43979244844772       -0.94790288326370       -0.00787780026896
C            0.91667070887597        0.34504777890505        0.01327662162238
C            0.03491763855456        1.48591607431936       -0.00780038591524
O            0.37366805928178        2.65482118982172       -0.01229815390621
N           -1.30364830628122        1.10197526924044       -0.03019371105485
C           -2.30897994991758        2.15866503138172       -0.04629384477692
C           -1.80892596737098       -0.18955534969969       -0.04634936697617
O           -3.00032562242469       -0.39635662077030       -0.06829780746675
N           -0.89332711945248       -1.23544834124231       -0.03837193477708
C           -1.38399270771478       -2.59825133488718       -0.06219488633756
H            3.65396881421411        1.44871656020723        1.06719059959133
H            3.96758653128196        1.25455387817475       -0.66157066353338
H            2.62471417586984        2.29366289001944       -0.10846481072251
H            3.57499802255481       -3.91401082972182        0.02815445174964
H           -1.78807390158326        3.11359760882578       -0.01972452309447
H           -2.91454764131764        2.08384818555810       -0.94920063297749
H           -2.96497163443658        2.06032475203370        0.81825610836949
H           -1.05829148373830       -3.13826905634219        0.82821474358103
H           -1.03232881400666       -3.11564052272326       -0.95631791122373
H           -2.47276663748384       -2.55637526486816       -0.07760599943914
H            1.52807378820790       -2.77075555908666       -0.00548521550497
25
 energy: 52.375459618676 xtb: 6.6.1 (8d0f1dd)
C            3.18487647826983        1.37849815394483        0.08555833934910
N            2.29640476424938        0.24275321775355        0.03910868855036
C            2.69659853248077       -1.02087378991413        0.03795649839303
N            1.51984232475849       -1.76843365763800        0.00604235261976
C            0.43895325966692       -0.94893510571867       -0.00933132104071
C            0.90380580773806        0.35241939704541        0.01251304158932
C            0.03720736959556        1.48601636327744       -0.00930471120499
O            0.37052484184782        2.65726600122648       -0.01299182207174
N           -1.31185080551466        1.10328253115908       -0.03202576363518
C           -2.31249218833623        2.16013684059909       -0.04589863272868
C           -1.81186717805769       -0.18347753331740       -0.04635100191415
O           -3.00304553741626       -0.39793593345197       -0.06757329534833
N           -0.89535678021247       -1.23207213780954       -0.03741250785637
C           -1.38408076425403       -2.59600022453445       -0.06227620934230
H            3.65249965964022        1.44778065515561        1.06681947617798
H            3.96721835262091        1.25438312008962       -0.66120161123434
H            2.62248529920504        2.29023644296893       -0.10911347923365
H            3.66661594564166       -3.91754571050357        0.03373991940064
H           -1.78879738668860        3.11348903554201       -0.01975010349445
H           -2.91851573201286        2.08514596604708       -0.94819339733219
H           -2.96685302389046        2.06126335188698        0.81962328474663
H           -1.05799274439754       -3.13649182559694        0.82818779482084
H           -1.03152632842039       -3.11356787847190       -0.95637788454410
H           -2.47317876529052       -2.55677497814445       -0.07800106529010
H            1.51073890374949       -2.77153351285103       -0.00671267718180
25
 energy: 52.246992976964 xtb: 6.6.1 (8d0f1dd)
C            3.18419385575241        1.37499826307287        0.08489157000270
N            2.29502811890774        0.23997182958915        0.03842616391189
C            2.68264431588402       -1.03220188078469        0.03350017424487
N            1.50621923529769       -1.76984558338620        0.00474832274990
C            0.43347389467840       -0.94799032467867       -0.00854777836561
C            0.90034970043218        0.35294142278051        0.01454210772273
C            0.04019721996005        1.48691041096158       -0.00640357045918
O            0.36776918886062        2.65868822694906       -0.01076094315364
N           -1.31403124844745        1.10277225449024       -0.03112816475905
C           -2.31223190262611        2.16037129259984       -0.04692303007716
C           -1.81543078467263       -0.18037692849560       -0.04582279979562
O           -3.00632924172203       -0.39796076016681       -0.06834611141154
N           -0.89886875036046       -1.23135671882103       -0.03598317689587
C           -1.38606065640037       -2.59593873756486       -0.06176270298156
H            3.65264174487767        1.44592183975922        1.06646316418093
H            3.96748399065437        1.25440084119473       -0.66214081236921
H            2.62021861904969        2.28555001710093       -0.10854289592809
H            3.72979017119996       -3.90020481465570        0.03652254580549
H           -1.78822140841184        3.11353154713717       -0.02009635118023
H           -2.91729396655086        2.08632537436526       -0.95007838999298
H           -2.96834407853739        2.06285296923271        0.81743078668126
H           -1.05910002233508       -3.13601255274591        0.82866859806557
H           -1.03262567472792       -3.11264962556954       -0.95600578014505
H           -2.47490470723468       -2.55678007300595       -0.07740332731968
H            1.50564669144449       -2.77488950061426       -0.00821368633633
25
 energy: 51.999307061777 xtb: 6.6.1 (8d0f1dd)
C            3.18409831224330        1.37087139988330        0.08434420987730
N            2.29152051546403        0.23966153462677        0.03813579678662
C            2.66849062182369       -1.04095681214105        0.03187299081629
N            1.49899943003857       -1.76800003304642        0.00381575068175
C            0.42543002364440       -0.94434839649260       -0.00819024206004
C            0.90284613639682        0.35104077080399        0.01445363892636
C            0.04191311729638        1.48900412114255       -0.00916864153261
O            0.36596650981668        2.65992064871977       -0.01339774905368
N           -1.31283191747158        1.10226649417330       -0.03173034110250
C           -2.31169939658358        2.15988480669512       -0.04584288979986
C           -1.81905304570627       -0.17924257657915       -0.04669573732958
O           -3.00965726586248       -0.39627944158179       -0.06823950910468
N           -0.90318076841048       -1.23127946140900       -0.03666257296500
C           -1.38765793124433       -2.59660711205791       -0.06216314246765
H            3.65257979870701        1.44363736662958        1.06716042184196
H            3.96899782600745        1.25074782888420       -0.66136339776932
H            2.62151706156411        2.28244563084805       -0.10936391207432
H            3.76972730932042       -3.88512098440033        0.04189863518841
H           -1.78942062381754        3.11405412854742       -0.01958451040611
H           -2.91882865466793        2.08638643074139       -0.94791851584605
H           -2.96689028043184        2.06218352073062        0.81945867761112
H           -1.05903750973137       -3.13542159384903        0.82828326182354
H           -1.03269900303679       -3.11228526578264       -0.95624953275102
H           -2.47617733933036       -2.55777682280190       -0.07786223496614
H            1.50726137894419       -2.77575739354020       -0.00795654213026
25