      -----------------------------------------------------------      
     |                   =====================                   |     
     |                           x T B                           |     
     |                   =====================                   |     
     |                         S. Grimme                         |     
     |          Mulliken Center for Theoretical Chemistry        |     
     |                    University of Bonn                     |     
      -----------------------------------------------------------      

   * xtb version 6.6.1 (8d0f1dd) compiled by 'conda@1efc2f54142f' on 2023-08-01

   xtb is free software: you can redistribute it and/or modify it under
   the terms of the GNU Lesser General Public License as published by
   the Free Software Foundation, either version 3 of the License, or
   (at your option) any later version.
   
   xtb is distributed in the hope that it will be useful,
   but WITHOUT ANY WARRANTY; without even the implied warranty of
   MERCHANTABILITY or FITNESS FOR A PARTICULAR PURPOSE.  See the
   GNU Lesser General Public License for more details.
   
   Cite this work as:
   * C. Bannwarth, E. Caldeweyher, S. Ehlert, A. Hansen, P. Pracht,
     J. Seibert, S. Spicher, S. Grimme, WIREs Comput. Mol. Sci., 2020, 11,
     e01493. DOI: 10.1002/wcms.1493
   
   for GFN2-xTB:
   * C. Bannwarth, S. Ehlert and S. Grimme., J. Chem. Theory Comput., 2019,
     15, 1652-1671. DOI: 10.1021/acs.jctc.8b01176
   for GFN1-xTB:
   * S. Grimme, C. Bannwarth, P. Shushkov, J. Chem. Theory Comput., 2017,
     13, 1989-2009. DOI: 10.1021/acs.jctc.7b00118
   for GFN0-xTB:
   * P. Pracht, E. Caldeweyher, S. Ehlert, S. Grimme, ChemRxiv, 2019, preprint.
     DOI: 10.26434/chemrxiv.8326202.v1
   for GFN-FF:
   * S. Spicher and S. Grimme, Angew. Chem. Int. Ed., 2020, 59, 15665-15673.
     DOI: 10.1002/anie.202004239
   
   for ALPB and GBSA implicit solvation:
   * S. Ehlert, M. Stahn, S. Spicher, S. Grimme, J. Chem. Theory Comput.,
     2021, 17, 4250-4261. DOI: 10.1021/acs.jctc.1c00471
   
   for DFT-D4:
   * E. Caldeweyher, C. Bannwarth and S. Grimme, J. Chem. Phys., 2017,
     147, 034112. DOI: 10.1063/1.4993215
   * E. Caldeweyher, S. Ehlert, A. Hansen, H. Neugebauer, S. Spicher,
     C. Bannwarth and S. Grimme, J. Chem. Phys., 2019, 150, 154122.
     DOI: 10.1063/1.5090222
   * E. Caldeweyher, J.-M. Mewes, S. Ehlert and S. Grimme, Phys. Chem. Chem. Phys.
     2020, 22, 8499-8512. DOI: 10.1039/D0CP00502A
   
   for sTDA-xTB:
   * S. Grimme and C. Bannwarth, J. Chem. Phys., 2016, 145, 054103.
     DOI: 10.1063/1.4959605
   
   in the mass-spec context:
   * V. Asgeirsson, C. Bauer and S. Grimme, Chem. Sci., 2017, 8, 4879.
     DOI: 10.1039/c7sc00601b
   * J. Koopman and S. Grimme, ACS Omega 2019, 4, 12, 15120-15133.
     DOI: 10.1021/acsomega.9b02011
   
   for metadynamics refer to:
   * S. Grimme, J. Chem. Theory Comput., 2019, 155, 2847-2862
     DOI: 10.1021/acs.jctc.9b00143
   
   for SPH calculations refer to:
   * S. Spicher and S. Grimme, J. Chem. Theory Comput., 2021, 17, 1701-1714
     DOI: 10.1021/acs.jctc.0c01306
   
   with help from (in alphabetical order)
   P. Atkinson, C. Bannwarth, F. Bohle, G. Brandenburg, E. Caldeweyher
   M. Checinski, S. Dohm, S. Ehlert, S. Ehrlich, I. Gerasimov, C. Hölzer
   A. Katbashev, J. Koopman, C. Lavigne, S. Lehtola, F. März, M. Müller,
   F. Musil, H. Neugebauer, J. Pisarek, C. Plett, P. Pracht, F. Pultar,
   J. Seibert, P. Shushkov, S. Spicher, M. Stahn, M. Steiner, T. Strunk,
   J. Stückrath, T. Rose, and J. Unsleber
   
 * started run on 2024/04/06 at 11:16:28.024     

           -------------------------------------------------
          |                Calculation Setup                |
           -------------------------------------------------

          program call               : xtb struc.xyz --opt loose --input .xc1 --gfn2
          hostname                   : n-62-30-23
          coordinate file            : struc.xyz
          omp threads                :                     1

   ID    Z sym.   atoms
    1    7 N      1, 17
    2    6 C      2-6, 8, 9, 11-16, 18-23, 25, 26, 28-33
    3    8 O      7, 10, 24, 27
    4    1 H      34-72
constraining bond 16 45 to    2.7133300 Å, actual value:    2.1449850 Å

           -------------------------------------------------
          |                 G F N 2 - x T B                 |
           -------------------------------------------------

        Reference                      10.1021/acs.jctc.8b01176
      * Hamiltonian:
        H0-scaling (s, p, d)           1.850000    2.230000    2.230000
        zeta-weighting                 0.500000
      * Dispersion:
        s8                             2.700000
        a1                             0.520000
        a2                             5.000000
        s9                             5.000000
      * Repulsion:
        kExp                           1.500000    1.000000
        rExp                           1.000000
      * Coulomb:
        alpha                          2.000000
        third order                    shell-resolved
        anisotropic                    true
        a3                             3.000000
        a5                             4.000000
        cn-shift                       1.200000
        cn-exp                         4.000000
        max-rad                        5.000000


          ...................................................
          :                      SETUP                      :
          :.................................................:
          :  # basis functions                 171          :
          :  # atomic orbitals                 171          :
          :  # shells                          105          :
          :  # electrons                       180          :
          :  max. iterations                   250          :
          :  Hamiltonian                  GFN2-xTB          :
          :  restarted?                      false          :
          :  GBSA solvation                  false          :
          :  PC potential                    false          :
          :  electronic temp.         5000.0000000     K    :
          :  accuracy                    1.0000000          :
          :  -> integral cutoff          0.2500000E+02      :
          :  -> integral neglect         0.1000000E-07      :
          :  -> SCF convergence          0.1000000E-05 Eh   :
          :  -> wf. convergence          0.1000000E-03 e    :
          :  Broyden damping             0.4000000          :
          ...................................................

 iter      E             dE          RMSdq      gap      omega  full diag
   1   -100.5973919 -0.100597E+03  0.374E+00    3.20       0.0  T
   2   -100.7362642 -0.138872E+00  0.221E+00    1.08       1.0  T
   3   -100.7049001  0.313641E-01  0.141E+00    3.29       1.0  T
   4   -100.7721690 -0.672689E-01  0.526E-01    1.50       1.0  T
   5   -100.7894292 -0.172602E-01  0.190E-01    1.98       1.0  T
   6   -100.7911978 -0.176856E-02  0.792E-02    1.77       1.0  T
   7   -100.7914750 -0.277198E-03  0.375E-02    1.83       1.0  T
   8   -100.7914914 -0.164582E-04  0.140E-02    1.83       1.0  T
   9   -100.7914976 -0.616739E-05  0.474E-03    1.82       2.5  T
  10   -100.7914988 -0.118227E-05  0.172E-03    1.82       6.8  T
  11   -100.7914989 -0.139928E-06  0.766E-04    1.82      15.4  T
  12   -100.7914989 -0.773143E-08  0.318E-04    1.82      37.0  T

   *** convergence criteria satisfied after 12 iterations ***

         #    Occupation            Energy/Eh            Energy/eV
      -------------------------------------------------------------
         1        2.0000           -0.8078051             -21.9815
       ...           ...                  ...                  ...
        84        1.9966           -0.5157491             -14.0342
        85        1.9959           -0.5128261             -13.9547
        86        1.9840           -0.4911498             -13.3649
        87        1.9795           -0.4872543             -13.2589
        88        1.9640           -0.4782114             -13.0128
        89        1.8920           -0.4602041             -12.5228
        90        1.8557           -0.4553147             -12.3897 (HOMO)
        91        0.3166           -0.3884132             -10.5693 (LUMO)
        92        0.0218           -0.3434697              -9.3463
        93        0.0041           -0.3169887              -8.6257
        94        0.0034           -0.3139726              -8.5436
        95        0.0029           -0.3112618              -8.4699
       ...           ...                  ...                  ...
       171                          0.5822580              15.8440
      -------------------------------------------------------------
                  HL-Gap            0.0669015 Eh            1.8205 eV
             Fermi-level           -0.4148687 Eh          -11.2892 eV

 SCC (total)                   0 d,  0 h,  0 min,  0.194 sec
 SCC setup                      ...        0 min,  0.001 sec (  0.618%)
 Dispersion                     ...        0 min,  0.002 sec (  0.894%)
 classical contributions        ...        0 min,  0.000 sec (  0.221%)
 integral evaluation            ...        0 min,  0.023 sec ( 11.825%)
 iterations                     ...        0 min,  0.098 sec ( 50.353%)
 molecular gradient             ...        0 min,  0.069 sec ( 35.756%)
 printout                       ...        0 min,  0.001 sec (  0.325%)

         :::::::::::::::::::::::::::::::::::::::::::::::::::::
         ::                     SUMMARY                     ::
         :::::::::::::::::::::::::::::::::::::::::::::::::::::
         :: total energy             -99.461806471206 Eh    ::
         :: gradient norm              0.157106543510 Eh/a0 ::
         :: HOMO-LUMO gap              1.820481192090 eV    ::
         ::.................................................::
         :: SCC energy              -100.791498925389 Eh    ::
         :: -> isotropic ES            0.109302908418 Eh    ::
         :: -> anisotropic ES          0.005415138735 Eh    ::
         :: -> anisotropic XC          0.042392697176 Eh    ::
         :: -> dispersion             -0.075527661009 Eh    ::
         :: repulsion energy           1.386151658689 Eh    ::
         :: add. restraining          -0.057675557012 Eh    ::
         :: total charge               1.000000000108 e     ::
         :::::::::::::::::::::::::::::::::::::::::::::::::::::

      ----------------------------------------------------------- 
     |                   =====================                   |
     |                        A N C O P T                        |
     |                   =====================                   |
     |               Approximate Normal Coordinate               |
     |                Rational Function Optimizer                |
      ----------------------------------------------------------- 

          ...................................................
          :                      SETUP                      :
          :.................................................:
          :   optimization level             loose          :
          :   max. optcycles                   200          :
          :   ANC micro-cycles                  20          :
          :   degrees of freedom               210          :
          :.................................................:
          :   RF solver                   davidson          :
          :   write xtbopt.log                true          :
          :   linear?                        false          :
          :   energy convergence         0.5000000E-04 Eh   :
          :   grad. convergence          0.4000000E-02 Eh/α :
          :   maxmium RF displ.          1.0000000          :
          :   Hlow (freq-cutoff)         0.1000000E-01      :
          :   Hmax (freq-cutoff)         5.0000000          :
          :   S6 in model hess.         20.0000000          :
          ...................................................

generating ANC from model Hessian ...
Using Lindh-Hessian (1995)
 Shifting diagonal of input Hessian by    1.1921184763508674E-002
 Lowest  eigenvalues of input Hessian
    0.010000    0.000000    0.000000    0.000000    0.000000    0.000000
    0.000000    0.011982    0.012003    0.012083    0.012248    0.012293
    0.012683    0.012906    0.012962    0.013519    0.013734    0.014288
 Highest eigenvalues
    2.046809    2.047881    2.053513    2.181365    2.186420    2.188976


........................................................................
.............................. CYCLE    1 ..............................
........................................................................

 iter      E             dE          RMSdq      gap      omega  full diag
   1   -100.7914989 -0.100791E+03  0.114E-04    1.82       0.0  T
   2   -100.7914989 -0.678995E-10  0.713E-05    1.82     165.2  T
   3   -100.7914989  0.665210E-10  0.496E-05    1.82     237.5  T
     SCC iter.                  ...        0 min,  0.026 sec
     gradient                   ...        0 min,  0.070 sec
 * total energy  :   -99.4618065 Eh     change       -0.4035485E-08 Eh
   gradient norm :     0.1571078 Eh/α   predicted     0.0000000E+00 (-100.00%)
   displ. norm   :     0.8764674 α      lambda       -0.1090071E+00
   maximum displ.:     0.6750056 α      in ANC's #1, #12, #18, ...

........................................................................
.............................. CYCLE    2 ..............................
........................................................................

 iter      E             dE          RMSdq      gap      omega  full diag
   1   -100.7628885 -0.100763E+03  0.511E-01    1.71       0.0  T
   2   -100.7632886 -0.400166E-03  0.293E-01    1.80       1.0  T
   3   -100.7619166  0.137203E-02  0.119E-01    1.60       1.0  T
   4   -100.7632914 -0.137477E-02  0.410E-02    1.80       1.0  T
   5   -100.7634563 -0.164959E-03  0.127E-02    1.75       1.0  T
   6   -100.7634586 -0.230582E-05  0.601E-03    1.75       2.0  T
   7   -100.7634603 -0.163903E-05  0.162E-03    1.75       7.3  T
   8   -100.7634604 -0.129986E-06  0.686E-04    1.75      17.2  T
   9   -100.7634604 -0.101379E-07  0.245E-04    1.75      48.0  T
     SCC iter.                  ...        0 min,  0.073 sec
     gradient                   ...        0 min,  0.069 sec
 * total energy  :   -99.5694065 Eh     change       -0.1076001E+00 Eh
   gradient norm :     0.1405051 Eh/α   predicted    -0.9637732E-01 ( -10.43%)
   displ. norm   :     0.9616270 α      lambda       -0.1210333E+00
   maximum displ.:     0.7262825 α      in ANC's #1, #12, #18, ...

........................................................................
.............................. CYCLE    3 ..............................
........................................................................

 iter      E             dE          RMSdq      gap      omega  full diag
   1   -100.6159315 -0.100616E+03  0.550E-01    1.53       0.0  T
   2   -100.6183364 -0.240491E-02  0.311E-01    1.55       1.0  T
   3   -100.6185552 -0.218811E-03  0.113E-01    1.56       1.0  T
   4   -100.6187476 -0.192348E-03  0.549E-02    1.53       1.0  T
   5   -100.6187515 -0.391807E-05  0.305E-02    1.59       1.0  T
   6   -100.6188011 -0.496134E-04  0.193E-02    1.53       1.0  T
   7   -100.6188466 -0.455410E-04  0.267E-03    1.55       4.4  T
   8   -100.6188469 -0.266500E-06  0.141E-03    1.55       8.4  T
   9   -100.6188469 -0.464865E-07  0.636E-04    1.55      18.5  T
  10   -100.6188470 -0.152071E-07  0.198E-04    1.55      59.5  T
     SCC iter.                  ...        0 min,  0.080 sec
     gradient                   ...        0 min,  0.069 sec
 * total energy  :   -99.6917671 Eh     change       -0.1223606E+00 Eh
   gradient norm :     0.2279140 Eh/α   predicted    -0.1164782E+00 (  -4.81%)
   displ. norm   :     0.9473425 α      lambda       -0.1359971E+00
   maximum displ.:     0.6040928 α      in ANC's #1, #156, #86, ...

........................................................................
.............................. CYCLE    4 ..............................
........................................................................

 iter      E             dE          RMSdq      gap      omega  full diag
   1   -100.4854442 -0.100485E+03  0.132E+00    0.71       0.0  T
   2   -100.4631899  0.222544E-01  0.101E+00    1.33       1.0  T
   3   -100.5435996 -0.804097E-01  0.462E-01    0.58       1.0  T
   4   -100.5497262 -0.612660E-02  0.122E-01    0.63       1.0  T
   5   -100.5497647 -0.385024E-04  0.621E-02    0.64       1.0  T
   6   -100.5503211 -0.556353E-03  0.301E-02    0.64       1.0  T
   7   -100.5504051 -0.839906E-04  0.114E-02    0.64       1.0  T
   8   -100.5504107 -0.559587E-05  0.414E-03    0.64       2.8  T
   9   -100.5504121 -0.144668E-05  0.837E-04    0.64      14.1  T
  10   -100.5504121 -0.878798E-08  0.415E-04    0.64      28.4  T
  11   -100.5504121 -0.927074E-08  0.143E-04    0.64      82.7  T
     SCC iter.                  ...        0 min,  0.087 sec
     gradient                   ...        0 min,  0.069 sec
 * total energy  :   -98.5962585 Eh     change        0.1095509E+01 Eh
   gradient norm :     6.7489456 Eh/α   predicted    -0.1290245E+00 (-111.78%)
   displ. norm   :     0.5043155 α      lambda       -0.3387450E+01
   maximum displ.:     0.1963327 α      in ANC's #1, #156, #86, ...

........................................................................
.............................. CYCLE    5 ..............................
........................................................................

 iter      E             dE          RMSdq      gap      omega  full diag
   1   -100.5609985 -0.100561E+03  0.569E-01    1.31       0.0  T
   2   -100.5591784  0.182017E-02  0.420E-01    0.91       1.0  T
   3   -100.5724701 -0.132917E-01  0.202E-01    1.15       1.0  T
   4   -100.5741187 -0.164863E-02  0.955E-02    1.10       1.0  T
   5   -100.5741197 -0.100058E-05  0.776E-02    1.09       1.0  T
   6   -100.5747980 -0.678270E-03  0.170E-02    1.10       1.0  T
   7   -100.5748071 -0.913423E-05  0.913E-03    1.09       1.3  T
   8   -100.5748129 -0.571903E-05  0.191E-03    1.09       6.2  T
   9   -100.5748130 -0.181931E-06  0.793E-04    1.09      14.9  T
  10   -100.5748131 -0.192059E-07  0.300E-04    1.09      39.2  T
     SCC iter.                  ...        0 min,  0.080 sec
     gradient                   ...        0 min,  0.080 sec
 * total energy  :   -99.7157869 Eh     change       -0.1119528E+01 Eh
   gradient norm :     0.2544260 Eh/α   predicted    -0.2124497E+01 (  89.77%)
   displ. norm   :     0.3724311 α      lambda       -0.4593085E-01
   maximum displ.:     0.1069379 α      in ANC's #130, #57, #104, ...

........................................................................
.............................. CYCLE    6 ..............................
........................................................................

 iter      E             dE          RMSdq      gap      omega  full diag
   1   -100.5931241 -0.100593E+03  0.217E-01    1.15       0.0  T
   2   -100.5895626  0.356146E-02  0.249E-01    1.21       1.0  T
   3   -100.5948737 -0.531104E-02  0.979E-02    1.19       1.0  T
   4   -100.5949839 -0.110255E-03  0.218E-02    1.20       1.0  T
   5   -100.5950181 -0.341737E-04  0.989E-03    1.20       1.2  T
   6   -100.5950174  0.677357E-06  0.680E-03    1.20       1.7  T
   7   -100.5950218 -0.435578E-05  0.198E-03    1.20       5.9  T
   8   -100.5950220 -0.204569E-06  0.839E-04    1.20      14.0  T
   9   -100.5950220 -0.346489E-07  0.386E-04    1.20      30.5  T
     SCC iter.                  ...        0 min,  0.073 sec
     gradient                   ...        0 min,  0.069 sec
 * total energy  :   -99.7532124 Eh     change       -0.3742555E-01 Eh
   gradient norm :     0.1622487 Eh/α   predicted    -0.2615097E-01 ( -30.13%)
   displ. norm   :     0.7220746 α      lambda       -0.6098922E-01
   maximum displ.:     0.2115356 α      in ANC's #130, #83, #114, ...

........................................................................
.............................. CYCLE    7 ..............................
........................................................................

 iter      E             dE          RMSdq      gap      omega  full diag
   1   -100.6181419 -0.100618E+03  0.479E-01    1.26       0.0  T
   2   -100.6137208  0.442111E-02  0.257E-01    1.10       1.0  T
   3   -100.6039949  0.972587E-02  0.483E-01    1.38       1.0  T
   4   -100.6199954 -0.160004E-01  0.614E-02    1.22       1.0  T
   5   -100.6202618 -0.266394E-03  0.261E-02    1.24       1.0  T
   6   -100.6203021 -0.403382E-04  0.126E-02    1.23       1.0  T
   7   -100.6203046 -0.247654E-05  0.663E-03    1.24       1.8  T
   8   -100.6203086 -0.396065E-05  0.185E-03    1.23       6.4  T
   9   -100.6203086 -0.567355E-07  0.957E-04    1.23      12.3  T
  10   -100.6203087 -0.660000E-07  0.317E-04    1.23      37.2  T
     SCC iter.                  ...        0 min,  0.080 sec
     gradient                   ...        0 min,  0.070 sec
 * total energy  :   -99.7833631 Eh     change       -0.3015067E-01 Eh
   gradient norm :     0.2169051 Eh/α   predicted    -0.4639429E-01 (  53.87%)
   displ. norm   :     0.5030571 α      lambda       -0.3145954E-01
   maximum displ.:     0.1300888 α      in ANC's #50, #41, #48, ...

........................................................................
.............................. CYCLE    8 ..............................
........................................................................

 iter      E             dE          RMSdq      gap      omega  full diag
   1   -100.6221821 -0.100622E+03  0.336E-01    1.07       0.0  T
   2   -100.6206383  0.154386E-02  0.255E-01    1.06       1.0  T
   3   -100.6227094 -0.207114E-02  0.242E-01    1.20       1.0  T
   4   -100.6241155 -0.140603E-02  0.106E-01    1.01       1.0  T
   5   -100.6258664 -0.175099E-02  0.274E-02    1.12       1.0  T
   6   -100.6259353 -0.688026E-04  0.115E-02    1.11       1.0  T
   7   -100.6259415 -0.626346E-05  0.395E-03    1.11       3.0  T
   8   -100.6259425 -0.946006E-06  0.902E-04    1.10      13.1  T
   9   -100.6259425 -0.145408E-07  0.588E-04    1.10      20.0  T
     SCC iter.                  ...        0 min,  0.073 sec
     gradient                   ...        0 min,  0.069 sec
 * total energy  :   -99.8081543 Eh     change       -0.2479125E-01 Eh
   gradient norm :     0.1721249 Eh/α   predicted    -0.1971045E-01 ( -20.49%)
   displ. norm   :     0.6536837 α      lambda       -0.3524940E-01
   maximum displ.:     0.1656458 α      in ANC's #42, #44, #34, ...

........................................................................
.............................. CYCLE    9 ..............................
........................................................................

 iter      E             dE          RMSdq      gap      omega  full diag
   1   -100.6404832 -0.100640E+03  0.390E-01    0.91       0.0  T
   2   -100.6384290  0.205426E-02  0.341E-01    0.76       1.0  T
   3   -100.6419380 -0.350901E-02  0.280E-01    1.06       1.0  T
   4   -100.6402292  0.170879E-02  0.209E-01    0.75       1.0  T
   5   -100.6462563 -0.602711E-02  0.383E-02    0.93       1.0  T
   6   -100.6464020 -0.145728E-03  0.151E-02    0.92       1.0  T
   7   -100.6464129 -0.108541E-04  0.572E-03    0.91       2.1  T
   8   -100.6464146 -0.170284E-05  0.175E-03    0.91       6.7  T
   9   -100.6464149 -0.334469E-06  0.751E-04    0.91      15.7  T
  10   -100.6464150 -0.281936E-07  0.355E-04    0.91      33.2  T
     SCC iter.                  ...        0 min,  0.080 sec
     gradient                   ...        0 min,  0.069 sec
 * total energy  :   -99.8330909 Eh     change       -0.2493655E-01 Eh
   gradient norm :     0.2072941 Eh/α   predicted    -0.2515582E-01 (   0.88%)
   displ. norm   :     0.6078316 α      lambda       -0.2348475E-01
   maximum displ.:     0.2345017 α      in ANC's #1, #8, #34, ...

........................................................................
.............................. CYCLE   10 ..............................
........................................................................

 iter      E             dE          RMSdq      gap      omega  full diag
   1   -100.6594138 -0.100659E+03  0.268E-01    0.99       0.0  T
   2   -100.6535223  0.589147E-02  0.317E-01    0.72       1.0  T
   3   -100.6576834 -0.416111E-02  0.236E-01    1.07       1.0  T
   4   -100.6609823 -0.329890E-02  0.938E-02    0.87       1.0  T
   5   -100.6618967 -0.914374E-03  0.187E-02    0.93       1.0  T
   6   -100.6619314 -0.347228E-04  0.663E-03    0.92       1.8  T
   7   -100.6619327 -0.127971E-05  0.296E-03    0.92       4.0  T
   8   -100.6619332 -0.506445E-06  0.873E-04    0.92      13.5  T
   9   -100.6619333 -0.920825E-07  0.316E-04    0.92      37.3  T
     SCC iter.                  ...        0 min,  0.072 sec
     gradient                   ...        0 min,  0.070 sec
 * total energy  :   -99.8449999 Eh     change       -0.1190902E-01 Eh
   gradient norm :     0.1708937 Eh/α   predicted    -0.1608074E-01 (  35.03%)
   displ. norm   :     0.5323399 α      lambda       -0.2489298E-01
   maximum displ.:     0.1704420 α      in ANC's #57, #10, #8, ...

........................................................................
.............................. CYCLE   11 ..............................
........................................................................

 iter      E             dE          RMSdq      gap      omega  full diag
   1   -100.6735391 -0.100674E+03  0.229E-01    1.05       0.0  T
   2   -100.6598251  0.137140E-01  0.422E-01    0.66       1.0  T
   3   -100.6752876 -0.154625E-01  0.118E-01    1.02       1.0  T
   4   -100.6747024  0.585197E-03  0.931E-02    0.87       1.0  T
   5   -100.6757915 -0.108910E-02  0.121E-02    0.96       1.0  T
   6   -100.6758022 -0.106848E-04  0.633E-03    0.95       1.9  T
   7   -100.6758036 -0.145686E-05  0.270E-03    0.96       4.4  T
   8   -100.6758042 -0.585383E-06  0.680E-04    0.96      17.3  T
   9   -100.6758042 -0.211677E-07  0.337E-04    0.96      35.0  T
     SCC iter.                  ...        0 min,  0.073 sec
     gradient                   ...        0 min,  0.069 sec
 * total energy  :   -99.8618806 Eh     change       -0.1688068E-01 Eh
   gradient norm :     0.1524912 Eh/α   predicted    -0.1597364E-01 (  -5.37%)
   displ. norm   :     0.4883783 α      lambda       -0.2110864E-01
   maximum displ.:     0.1468188 α      in ANC's #10, #8, #23, ...

........................................................................
.............................. CYCLE   12 ..............................
........................................................................

 iter      E             dE          RMSdq      gap      omega  full diag
   1   -100.6860974 -0.100686E+03  0.216E-01    1.11       0.0  T
   2   -100.6764852  0.961222E-02  0.324E-01    0.73       1.0  T
   3   -100.6863051 -0.981996E-02  0.146E-01    1.11       1.0  T
   4   -100.6873146 -0.100949E-02  0.431E-02    1.03       1.0  T
   5   -100.6875195 -0.204867E-03  0.101E-02    1.01       1.2  T
   6   -100.6875245 -0.504437E-05  0.408E-03    1.01       2.9  T
   7   -100.6875249 -0.400945E-06  0.189E-03    1.01       6.2  T
   8   -100.6875253 -0.347740E-06  0.509E-04    1.01      23.2  T
   9   -100.6875253 -0.438342E-08  0.264E-04    1.01      44.6  T
     SCC iter.                  ...        0 min,  0.073 sec
     gradient                   ...        0 min,  0.070 sec
 * total energy  :   -99.8735959 Eh     change       -0.1171535E-01 Eh
   gradient norm :     0.1494894 Eh/α   predicted    -0.1307167E-01 (  11.58%)
   displ. norm   :     0.5755547 α      lambda       -0.2151265E-01
   maximum displ.:     0.2250895 α      in ANC's #10, #23, #8, ...

........................................................................
.............................. CYCLE   13 ..............................
........................................................................

 iter      E             dE          RMSdq      gap      omega  full diag
   1   -100.7073504 -0.100707E+03  0.216E-01    1.03       0.0  T
   2   -100.7073748 -0.244318E-04  0.132E-01    1.00       1.0  T
   3   -100.7050208  0.235408E-02  0.140E-01    1.16       1.0  T
   4   -100.7070482 -0.202746E-02  0.674E-02    0.97       1.0  T
   5   -100.7074655 -0.417307E-03  0.121E-02    1.01       1.0  T
   6   -100.7074716 -0.607863E-05  0.615E-03    1.02       1.9  T
   7   -100.7074737 -0.211876E-05  0.174E-03    1.02       6.8  T
   8   -100.7074740 -0.225560E-06  0.520E-04    1.02      22.7  T
   9   -100.7074740 -0.434528E-08  0.276E-04    1.02      42.7  T
     SCC iter.                  ...        0 min,  0.073 sec
     gradient                   ...        0 min,  0.069 sec
 * total energy  :   -99.8799395 Eh     change       -0.6343529E-02 Eh
   gradient norm :     0.0897869 Eh/α   predicted    -0.1431951E-01 ( 125.73%)
   displ. norm   :     0.4990392 α      lambda       -0.1704416E-01
   maximum displ.:     0.1821288 α      in ANC's #1, #10, #8, ...

........................................................................
.............................. CYCLE   14 ..............................
........................................................................

 iter      E             dE          RMSdq      gap      omega  full diag
   1   -100.7021282 -0.100702E+03  0.209E-01    0.89       0.0  T
   2   -100.6946146  0.751357E-02  0.321E-01    1.25       1.0  T
   3   -100.7033521 -0.873746E-02  0.107E-01    0.98       1.0  T
   4   -100.7032373  0.114764E-03  0.439E-02    0.99       1.0  T
   5   -100.7033971 -0.159765E-03  0.101E-02    0.99       1.2  T
   6   -100.7033997 -0.262874E-05  0.646E-03    0.99       1.8  T
   7   -100.7034015 -0.176544E-05  0.270E-03    0.99       4.4  T
   8   -100.7034022 -0.740695E-06  0.610E-04    0.99      19.3  T
   9   -100.7034022 -0.259465E-08  0.369E-04    0.99      31.9  T
     SCC iter.                  ...        0 min,  0.073 sec
     gradient                   ...        0 min,  0.070 sec
 * total energy  :   -99.8897137 Eh     change       -0.9774265E-02 Eh
   gradient norm :     0.0493900 Eh/α   predicted    -0.1064441E-01 (   8.90%)
   displ. norm   :     0.4640204 α      lambda       -0.7256225E-02
   maximum displ.:     0.2330985 α      in ANC's #10, #8, #1, ...

........................................................................
.............................. CYCLE   15 ..............................
........................................................................

 iter      E             dE          RMSdq      gap      omega  full diag
   1   -100.7175026 -0.100718E+03  0.121E-01    0.97       0.0  T
   2   -100.7171524  0.350158E-03  0.101E-01    1.04       1.0  T
   3   -100.7165014  0.651059E-03  0.114E-01    0.89       1.0  T
   4   -100.7172927 -0.791374E-03  0.537E-02    1.04       1.0  T
   5   -100.7176683 -0.375560E-03  0.476E-03    0.98       2.5  T
   6   -100.7176691 -0.790775E-06  0.259E-03    0.99       4.6  T
   7   -100.7176694 -0.262025E-06  0.105E-03    0.98      11.3  T
   8   -100.7176695 -0.997585E-07  0.307E-04    0.98      38.4  T
   9   -100.7176695 -0.221591E-08  0.185E-04    0.98      63.6  T
     SCC iter.                  ...        0 min,  0.072 sec
     gradient                   ...        0 min,  0.069 sec
 * total energy  :   -99.8940551 Eh     change       -0.4341382E-02 Eh
   gradient norm :     0.0653320 Eh/α   predicted    -0.4409309E-02 (   1.56%)
   displ. norm   :     0.6191168 α      lambda       -0.7059966E-02
   maximum displ.:     0.3138640 α      in ANC's #10, #8, #11, ...

........................................................................
.............................. CYCLE   16 ..............................
........................................................................

 iter      E             dE          RMSdq      gap      omega  full diag
   1   -100.7123963 -0.100712E+03  0.164E-01    0.99       0.0  T
   2   -100.7124408 -0.444924E-04  0.961E-02    0.98       1.0  T
   3   -100.7121712  0.269557E-03  0.527E-02    1.01       1.0  T
   4   -100.7123886 -0.217381E-03  0.303E-02    0.96       1.0  T
   5   -100.7124801 -0.915010E-04  0.117E-02    0.99       1.0  T
   6   -100.7124906 -0.105361E-04  0.355E-03    0.99       3.3  T
   7   -100.7124911 -0.468814E-06  0.119E-03    0.99       9.9  T
   8   -100.7124913 -0.149900E-06  0.325E-04    0.99      36.3  T
   9   -100.7124913 -0.359030E-08  0.172E-04    0.99      68.4  T
     SCC iter.                  ...        0 min,  0.073 sec
     gradient                   ...        0 min,  0.069 sec
 * total energy  :   -99.8983446 Eh     change       -0.4289543E-02 Eh
   gradient norm :     0.0295909 Eh/α   predicted    -0.4883043E-02 (  13.84%)
   displ. norm   :     0.5833683 α      lambda       -0.4734509E-02
   maximum displ.:     0.3392712 α      in ANC's #10, #8, #23, ...

........................................................................
.............................. CYCLE   17 ..............................
........................................................................

 iter      E             dE          RMSdq      gap      omega  full diag
   1   -100.7185672 -0.100719E+03  0.789E-02    0.98       0.0  T
   2   -100.7185798 -0.126576E-04  0.512E-02    0.99       1.0  T
   3   -100.7183342  0.245667E-03  0.494E-02    0.94       1.0  T
   4   -100.7183813 -0.470977E-04  0.462E-02    1.03       1.0  T
   5   -100.7186087 -0.227384E-03  0.353E-03    0.99       3.3  T
   6   -100.7186095 -0.832935E-06  0.167E-03    0.99       7.1  T
   7   -100.7186096 -0.616477E-07  0.751E-04    0.99      15.7  T
   8   -100.7186096 -0.387464E-07  0.236E-04    0.99      49.9  T
     SCC iter.                  ...        0 min,  0.065 sec
     gradient                   ...        0 min,  0.069 sec
 * total energy  :   -99.9018427 Eh     change       -0.3498037E-02 Eh
   gradient norm :     0.0345659 Eh/α   predicted    -0.3172876E-02 (  -9.30%)
   displ. norm   :     0.6559096 α      lambda       -0.4472508E-02
   maximum displ.:     0.3791441 α      in ANC's #10, #8, #11, ...

........................................................................
.............................. CYCLE   18 ..............................
........................................................................

 iter      E             dE          RMSdq      gap      omega  full diag
   1   -100.7237674 -0.100724E+03  0.117E-01    1.00       0.0  T
   2   -100.7236276  0.139820E-03  0.804E-02    0.95       1.0  T
   3   -100.7216055  0.202205E-02  0.141E-01    1.11       1.0  T
   4   -100.7237806 -0.217507E-02  0.242E-02    0.98       1.0  T
   5   -100.7238341 -0.535009E-04  0.401E-03    0.99       2.9  T
   6   -100.7238343 -0.150448E-06  0.223E-03    0.99       5.3  T
   7   -100.7238343  0.835541E-09  0.120E-03    0.99       9.8  T
   8   -100.7238344 -0.179168E-06  0.265E-04    0.99      44.4  T
   9   -100.7238344 -0.138050E-08  0.175E-04    0.99      67.4  T
     SCC iter.                  ...        0 min,  0.074 sec
     gradient                   ...        0 min,  0.070 sec
 * total energy  :   -99.9049696 Eh     change       -0.3126915E-02 Eh
   gradient norm :     0.0304907 Eh/α   predicted    -0.3198327E-02 (   2.28%)
   displ. norm   :     0.6401403 α      lambda       -0.3856485E-02
   maximum displ.:     0.3675984 α      in ANC's #10, #8, #9, ...

........................................................................
.............................. CYCLE   19 ..............................
........................................................................

 iter      E             dE          RMSdq      gap      omega  full diag
   1   -100.7282831 -0.100728E+03  0.892E-02    0.97       0.0  T
   2   -100.7282169  0.661415E-04  0.647E-02    1.01       1.0  T
   3   -100.7275433  0.673612E-03  0.877E-02    0.91       1.0  T
   4   -100.7281620 -0.618623E-03  0.365E-02    1.02       1.0  T
   5   -100.7283262 -0.164246E-03  0.451E-03    0.99       2.6  T
   6   -100.7283268 -0.649289E-06  0.241E-03    0.99       4.9  T
   7   -100.7283271 -0.274426E-06  0.760E-04    0.98      15.5  T
   8   -100.7283272 -0.420732E-07  0.227E-04    0.98      51.9  T
     SCC iter.                  ...        0 min,  0.065 sec
     gradient                   ...        0 min,  0.070 sec
 * total energy  :   -99.9080216 Eh     change       -0.3051958E-02 Eh
   gradient norm :     0.0242612 Eh/α   predicted    -0.2718403E-02 ( -10.93%)
   displ. norm   :     0.6615238 α      lambda       -0.3259181E-02
   maximum displ.:     0.3762189 α      in ANC's #10, #8, #9, ...

........................................................................
.............................. CYCLE   20 ..............................
........................................................................

 iter      E             dE          RMSdq      gap      omega  full diag
   1   -100.7300700 -0.100730E+03  0.100E-01    0.98       0.0  T
   2   -100.7300730 -0.305310E-05  0.582E-02    0.97       1.0  T
   3   -100.7296374  0.435585E-03  0.621E-02    1.03       1.0  T
   4   -100.7300464 -0.409019E-03  0.219E-02    0.96       1.0  T
   5   -100.7300892 -0.427329E-04  0.422E-03    0.98       2.8  T
   6   -100.7300900 -0.815963E-06  0.170E-03    0.98       6.9  T
   7   -100.7300901 -0.769458E-07  0.622E-04    0.98      19.0  T
   8   -100.7300901 -0.274977E-07  0.231E-04    0.98      50.9  T
     SCC iter.                  ...        0 min,  0.065 sec
     gradient                   ...        0 min,  0.070 sec
 * total energy  :   -99.9106584 Eh     change       -0.2636881E-02 Eh
   gradient norm :     0.0205401 Eh/α   predicted    -0.2342721E-02 ( -11.16%)
   displ. norm   :     0.6555835 α      lambda       -0.2744650E-02
   maximum displ.:     0.3596073 α      in ANC's #10, #8, #9, ...
 * RMSD in coord.:     0.8824549 α      energy gain  -0.4488520E+00 Eh

generating ANC from model Hessian ...
Using Lindh-Hessian (1995)
 Shifting diagonal of input Hessian by    9.9620593644675192E-003
 Lowest  eigenvalues of input Hessian
    0.000000    0.000000    0.000000    0.000000    0.000000    0.000000
    0.010000    0.010017    0.010115    0.010193    0.010289    0.010605
    0.010780    0.010969    0.011134    0.011498    0.011896    0.012786
 Highest eigenvalues
    1.927327    2.040361    2.045682    2.127732    2.183753    2.184050


........................................................................
.............................. CYCLE   21 ..............................
........................................................................

 iter      E             dE          RMSdq      gap      omega  full diag
   1   -100.7369275 -0.100737E+03  0.948E-02    0.97       0.0  T
   2   -100.7368715  0.560251E-04  0.674E-02    1.00       1.0  T
   3   -100.7363530  0.518470E-03  0.859E-02    0.91       1.0  T
   4   -100.7367117 -0.358681E-03  0.474E-02    1.02       1.0  T
   5   -100.7370033 -0.291611E-03  0.447E-03    0.97       2.6  T
   6   -100.7370049 -0.157210E-05  0.187E-03    0.97       6.3  T
   7   -100.7370050 -0.631657E-07  0.815E-04    0.97      14.5  T
   8   -100.7370050 -0.301002E-07  0.298E-04    0.97      39.5  T
     SCC iter.                  ...        0 min,  0.065 sec
     gradient                   ...        0 min,  0.069 sec
 * total energy  :   -99.9125941 Eh     change       -0.1935664E-02 Eh
   gradient norm :     0.0241610 Eh/α   predicted     0.0000000E+00 (-100.00%)
   displ. norm   :     0.2065244 α      lambda       -0.1314663E-02
   maximum displ.:     0.0912055 α      in ANC's #9, #6, #4, ...

........................................................................
.............................. CYCLE   22 ..............................
........................................................................

 iter      E             dE          RMSdq      gap      omega  full diag
   1   -100.7371322 -0.100737E+03  0.410E-02    0.97       0.0  T
   2   -100.7371315  0.736692E-06  0.273E-02    0.97       1.0  T
   3   -100.7370202  0.111294E-03  0.369E-02    1.00       1.0  T
   4   -100.7371036 -0.834160E-04  0.178E-02    0.96       1.0  T
   5   -100.7371448 -0.412376E-04  0.238E-03    0.98       4.9  T
   6   -100.7371455 -0.650061E-06  0.104E-03    0.97      11.3  T
   7   -100.7371455 -0.385680E-07  0.464E-04    0.97      25.4  T
   8   -100.7371455 -0.120157E-07  0.120E-04    0.97      98.2  T
     SCC iter.                  ...        0 min,  0.065 sec
     gradient                   ...        0 min,  0.069 sec
 * total energy  :   -99.9136278 Eh     change       -0.1033733E-02 Eh
   gradient norm :     0.0087365 Eh/α   predicted    -0.6855572E-03 ( -33.68%)
   displ. norm   :     0.4387324 α      lambda       -0.1552395E-02
   maximum displ.:     0.2085765 α      in ANC's #9, #6, #4, ...

........................................................................
.............................. CYCLE   23 ..............................
........................................................................

 iter      E             dE          RMSdq      gap      omega  full diag
   1   -100.7366799 -0.100737E+03  0.745E-02    0.97       0.0  T
   2   -100.7366853 -0.539759E-05  0.477E-02    0.97       1.0  T
   3   -100.7365137  0.171546E-03  0.504E-02    1.01       1.0  T
   4   -100.7365333 -0.195994E-04  0.386E-02    0.94       1.0  T
   5   -100.7367190 -0.185705E-03  0.322E-03    0.98       3.7  T
   6   -100.7367196 -0.595913E-06  0.167E-03    0.97       7.1  T
   7   -100.7367197 -0.103798E-06  0.695E-04    0.98      17.0  T
   8   -100.7367198 -0.293719E-07  0.233E-04    0.98      50.7  T
     SCC iter.                  ...        0 min,  0.065 sec
     gradient                   ...        0 min,  0.069 sec
 * total energy  :   -99.9146788 Eh     change       -0.1050941E-02 Eh
   gradient norm :     0.0143643 Eh/α   predicted    -0.9257419E-03 ( -11.91%)
   displ. norm   :     0.4060875 α      lambda       -0.8121212E-03
   maximum displ.:     0.2015057 α      in ANC's #9, #4, #6, ...

........................................................................
.............................. CYCLE   24 ..............................
........................................................................

 iter      E             dE          RMSdq      gap      omega  full diag
   1   -100.7364857 -0.100736E+03  0.568E-02    0.97       0.0  T
   2   -100.7364919 -0.619822E-05  0.355E-02    0.98       1.0  T
   3   -100.7364496  0.423206E-04  0.237E-02    0.96       1.0  T
   4   -100.7364586 -0.895707E-05  0.208E-02    0.99       1.0  T
   5   -100.7365065 -0.479336E-04  0.239E-03    0.97       4.9  T
   6   -100.7365068 -0.312805E-06  0.105E-03    0.97      11.2  T
   7   -100.7365069 -0.517712E-07  0.412E-04    0.98      28.6  T
   8   -100.7365069 -0.688492E-08  0.169E-04    0.97      69.9  T
     SCC iter.                  ...        0 min,  0.065 sec
     gradient                   ...        0 min,  0.070 sec
 * total energy  :   -99.9153072 Eh     change       -0.6284122E-03 Eh
   gradient norm :     0.0169596 Eh/α   predicted    -0.4730663E-03 ( -24.72%)
   displ. norm   :     0.5080891 α      lambda       -0.9149962E-03
   maximum displ.:     0.2438875 α      in ANC's #9, #4, #6, ...

........................................................................
.............................. CYCLE   25 ..............................
........................................................................

 iter      E             dE          RMSdq      gap      omega  full diag
   1   -100.7362472 -0.100736E+03  0.670E-02    0.97       0.0  T
   2   -100.7362407  0.653861E-05  0.418E-02    0.98       1.0  T
   3   -100.7358194  0.421226E-03  0.618E-02    0.92       1.0  T
   4   -100.7362106 -0.391145E-03  0.234E-02    0.99       1.0  T
   5   -100.7362644 -0.538425E-04  0.173E-03    0.97       6.8  T
   6   -100.7362645 -0.808813E-07  0.103E-03    0.97      11.4  T
   7   -100.7362646 -0.561477E-07  0.360E-04    0.97      32.7  T
   8   -100.7362646 -0.452781E-08  0.171E-04    0.97      69.1  T
     SCC iter.                  ...        0 min,  0.065 sec
     gradient                   ...        0 min,  0.069 sec
 * total energy  :   -99.9160628 Eh     change       -0.7556292E-03 Eh
   gradient norm :     0.0125316 Eh/α   predicted    -0.5756106E-03 ( -23.82%)
   displ. norm   :     0.5940444 α      lambda       -0.1025190E-02
   maximum displ.:     0.2753655 α      in ANC's #9, #4, #2, ...

........................................................................
.............................. CYCLE   26 ..............................
........................................................................

 iter      E             dE          RMSdq      gap      omega  full diag
   1   -100.7372920 -0.100737E+03  0.805E-02    0.96       0.0  T
   2   -100.7372429  0.491232E-04  0.524E-02    0.99       1.0  T
   3   -100.7362695  0.973385E-03  0.998E-02    0.88       1.0  T
   4   -100.7372871 -0.101759E-02  0.135E-02    0.98       1.0  T
   5   -100.7373101 -0.230302E-04  0.190E-03    0.97       6.2  T
   6   -100.7373102 -0.775635E-07  0.106E-03    0.97      11.2  T
   7   -100.7373102 -0.454208E-07  0.439E-04    0.97      26.8  T
   8   -100.7373102 -0.158033E-07  0.151E-04    0.97      77.9  T
     SCC iter.                  ...        0 min,  0.065 sec
     gradient                   ...        0 min,  0.074 sec
 * total energy  :   -99.9168547 Eh     change       -0.7919134E-03 Eh
   gradient norm :     0.0102517 Eh/α   predicted    -0.6934847E-03 ( -12.43%)
   displ. norm   :     0.5743684 α      lambda       -0.7297127E-03
   maximum displ.:     0.2498368 α      in ANC's #9, #4, #2, ...

........................................................................
.............................. CYCLE   27 ..............................
........................................................................

 iter      E             dE          RMSdq      gap      omega  full diag
   1   -100.7373708 -0.100737E+03  0.813E-02    0.96       0.0  T
   2   -100.7372831  0.876662E-04  0.562E-02    0.99       1.0  T
   3   -100.7364187  0.864365E-03  0.987E-02    0.88       1.0  T
   4   -100.7373572 -0.938454E-03  0.167E-02    0.98       1.0  T
   5   -100.7373941 -0.369494E-04  0.195E-03    0.96       6.0  T
   6   -100.7373942 -0.631654E-07  0.112E-03    0.97      10.6  T
   7   -100.7373942 -0.491827E-07  0.449E-04    0.96      26.2  T
   8   -100.7373943 -0.134713E-07  0.152E-04    0.96      77.7  T
     SCC iter.                  ...        0 min,  0.065 sec
     gradient                   ...        0 min,  0.069 sec
 * total energy  :   -99.9174202 Eh     change       -0.5654880E-03 Eh
   gradient norm :     0.0121866 Eh/α   predicted    -0.4852259E-03 ( -14.19%)
   displ. norm   :     0.5185106 α      lambda       -0.6149226E-03
   maximum displ.:     0.2319932 α      in ANC's #4, #9, #2, ...

........................................................................
.............................. CYCLE   28 ..............................
........................................................................

 iter      E             dE          RMSdq      gap      omega  full diag
   1   -100.7393912 -0.100739E+03  0.826E-02    0.95       0.0  T
   2   -100.7392435  0.147720E-03  0.629E-02    0.99       1.0  T
   3   -100.7386783  0.565259E-03  0.898E-02    0.88       1.0  T
   4   -100.7393415 -0.663183E-03  0.264E-02    0.98       1.0  T
   5   -100.7394350 -0.935446E-04  0.211E-03    0.96       5.6  T
   6   -100.7394351 -0.981692E-07  0.122E-03    0.96       9.7  T
   7   -100.7394351 -0.533594E-07  0.447E-04    0.96      26.4  T
   8   -100.7394352 -0.130993E-07  0.152E-04    0.96      77.7  T
     SCC iter.                  ...        0 min,  0.065 sec
     gradient                   ...        0 min,  0.069 sec
 * total energy  :   -99.9179097 Eh     change       -0.4894350E-03 Eh
   gradient norm :     0.0100810 Eh/α   predicted    -0.3901256E-03 ( -20.29%)
   displ. norm   :     0.5300898 α      lambda       -0.5856699E-03
   maximum displ.:     0.2433513 α      in ANC's #4, #2, #5, ...

........................................................................
.............................. CYCLE   29 ..............................
........................................................................

 iter      E             dE          RMSdq      gap      omega  full diag
   1   -100.7409878 -0.100741E+03  0.966E-02    0.94       0.0  T
   2   -100.7407652  0.222644E-03  0.749E-02    1.00       1.0  T
   3   -100.7400300  0.735153E-03  0.104E-01    0.87       1.0  T
   4   -100.7409232 -0.893217E-03  0.308E-02    0.98       1.0  T
   5   -100.7410498 -0.126552E-03  0.247E-03    0.95       4.8  T
   6   -100.7410500 -0.181527E-06  0.141E-03    0.95       8.3  T
   7   -100.7410500 -0.715232E-07  0.484E-04    0.95      24.4  T
   8   -100.7410500 -0.151761E-07  0.165E-04    0.95      71.4  T
     SCC iter.                  ...        0 min,  0.065 sec
     gradient                   ...        0 min,  0.069 sec
 * total energy  :   -99.9183845 Eh     change       -0.4748135E-03 Eh
   gradient norm :     0.0075279 Eh/α   predicted    -0.3751299E-03 ( -20.99%)
   displ. norm   :     0.5648780 α      lambda       -0.5729385E-03
   maximum displ.:     0.2593000 α      in ANC's #4, #5, #2, ...

........................................................................
.............................. CYCLE   30 ..............................
........................................................................

 iter      E             dE          RMSdq      gap      omega  full diag
   1   -100.7421920 -0.100742E+03  0.115E-01    0.93       0.0  T
   2   -100.7419532  0.238785E-03  0.839E-02    0.99       1.0  T
   3   -100.7405905  0.136272E-02  0.131E-01    0.84       1.0  T
   4   -100.7421188 -0.152827E-02  0.322E-02    0.97       1.0  T
   5   -100.7422585 -0.139729E-03  0.295E-03    0.95       4.0  T
   6   -100.7422588 -0.281219E-06  0.165E-03    0.95       7.1  T
   7   -100.7422589 -0.920091E-07  0.554E-04    0.95      21.3  T
   8   -100.7422589 -0.200419E-07  0.181E-04    0.95      65.0  T
     SCC iter.                  ...        0 min,  0.065 sec
     gradient                   ...        0 min,  0.071 sec
 * total energy  :   -99.9188535 Eh     change       -0.4689969E-03 Eh
   gradient norm :     0.0088416 Eh/α   predicted    -0.3778884E-03 ( -19.43%)
   displ. norm   :     0.5916373 α      lambda       -0.5730005E-03
   maximum displ.:     0.2677098 α      in ANC's #4, #5, #2, ...

........................................................................
.............................. CYCLE   31 ..............................
........................................................................

 iter      E             dE          RMSdq      gap      omega  full diag
   1   -100.7426276 -0.100743E+03  0.127E-01    0.93       0.0  T
   2   -100.7424789  0.148687E-03  0.835E-02    0.98       1.0  T
   3   -100.7402438  0.223506E-02  0.154E-01    0.82       1.0  T
   4   -100.7425793 -0.233548E-02  0.260E-02    0.97       1.0  T
   5   -100.7426716 -0.923482E-04  0.310E-03    0.95       3.8  T
   6   -100.7426720 -0.303826E-06  0.169E-03    0.95       7.0  T
   7   -100.7426721 -0.100718E-06  0.538E-04    0.95      21.9  T
   8   -100.7426721 -0.188821E-07  0.190E-04    0.95      62.1  T
     SCC iter.                  ...        0 min,  0.065 sec
     gradient                   ...        0 min,  0.069 sec
 * total energy  :   -99.9193270 Eh     change       -0.4735624E-03 Eh
   gradient norm :     0.0118252 Eh/α   predicted    -0.3867939E-03 ( -18.32%)
   displ. norm   :     0.5508167 α      lambda       -0.6099102E-03
   maximum displ.:     0.2359092 α      in ANC's #4, #5, #8, ...

........................................................................
.............................. CYCLE   32 ..............................
........................................................................

 iter      E             dE          RMSdq      gap      omega  full diag
   1   -100.7457470 -0.100746E+03  0.124E-01    0.94       0.0  T
   2   -100.7457168  0.301464E-04  0.745E-02    0.97       1.0  T
   3   -100.7442123  0.150448E-02  0.122E-01    0.85       1.0  T
   4   -100.7457126 -0.150030E-02  0.200E-02    0.97       1.0  T
   5   -100.7457665 -0.538966E-04  0.326E-03    0.95       3.6  T
   6   -100.7457671 -0.571359E-06  0.152E-03    0.95       7.7  T
   7   -100.7457672 -0.878708E-07  0.467E-04    0.95      25.2  T
   8   -100.7457672 -0.141948E-07  0.183E-04    0.95      64.3  T
     SCC iter.                  ...        0 min,  0.065 sec
     gradient                   ...        0 min,  0.069 sec
 * total energy  :   -99.9197995 Eh     change       -0.4724917E-03 Eh
   gradient norm :     0.0127057 Eh/α   predicted    -0.3974787E-03 ( -15.88%)
   displ. norm   :     0.5834056 α      lambda       -0.5355740E-03
   maximum displ.:     0.2639298 α      in ANC's #4, #5, #8, ...

........................................................................
.............................. CYCLE   33 ..............................
........................................................................

 iter      E             dE          RMSdq      gap      omega  full diag
   1   -100.7402546 -0.100740E+03  0.119E-01    0.95       0.0  T
   2   -100.7402579 -0.327460E-05  0.702E-02    0.96       1.0  T
   3   -100.7399599  0.298000E-03  0.509E-02    0.91       1.0  T
   4   -100.7402139 -0.253981E-03  0.222E-02    0.97       1.0  T
   5   -100.7402684 -0.545277E-04  0.266E-03    0.95       4.4  T
   6   -100.7402686 -0.158600E-06  0.145E-03    0.95       8.1  T
   7   -100.7402686 -0.832306E-07  0.653E-04    0.95      18.0  T
   8   -100.7402687 -0.368616E-07  0.211E-04    0.95      56.0  T
     SCC iter.                  ...        0 min,  0.065 sec
     gradient                   ...        0 min,  0.068 sec
 * total energy  :   -99.9201398 Eh     change       -0.3402550E-03 Eh
   gradient norm :     0.0102562 Eh/α   predicted    -0.3589328E-03 (   5.49%)
   displ. norm   :     0.4174381 α      lambda       -0.6244718E-03
   maximum displ.:     0.1560820 α      in ANC's #5, #8, #9, ...

........................................................................
.............................. CYCLE   34 ..............................
........................................................................

 iter      E             dE          RMSdq      gap      omega  full diag
   1   -100.7509045 -0.100751E+03  0.932E-02    0.97       0.0  T
   2   -100.7508876  0.169010E-04  0.572E-02    0.95       1.0  T
   3   -100.7498610  0.102656E-02  0.951E-02    1.05       1.0  T
   4   -100.7509111 -0.105006E-02  0.857E-03    0.96       1.4  T
   5   -100.7509171 -0.602465E-05  0.311E-03    0.96       3.8  T
   6   -100.7509177 -0.543417E-06  0.152E-03    0.96       7.8  T
   7   -100.7509177 -0.876969E-07  0.476E-04    0.96      24.8  T
   8   -100.7509178 -0.149849E-07  0.214E-04    0.96      55.1  T
     SCC iter.                  ...        0 min,  0.065 sec
     gradient                   ...        0 min,  0.069 sec
 * total energy  :   -99.9203679 Eh     change       -0.2281586E-03 Eh
   gradient norm :     0.0095329 Eh/α   predicted    -0.3666466E-03 (  60.70%)
   displ. norm   :     0.3441119 α      lambda       -0.3321769E-03
   maximum displ.:     0.1514567 α      in ANC's #4, #5, #2, ...

........................................................................
.............................. CYCLE   35 ..............................
........................................................................

 iter      E             dE          RMSdq      gap      omega  full diag
   1   -100.7465514 -0.100747E+03  0.791E-02    0.96       0.0  T
   2   -100.7465270  0.244422E-04  0.509E-02    0.98       1.0  T
   3   -100.7457533  0.773637E-03  0.859E-02    0.89       1.0  T
   4   -100.7465270 -0.773652E-03  0.171E-02    0.98       1.0  T
   5   -100.7465642 -0.372256E-04  0.251E-03    0.96       4.7  T
   6   -100.7465643 -0.575916E-07  0.162E-03    0.96       7.3  T
   7   -100.7465644 -0.166711E-06  0.524E-04    0.96      22.5  T
   8   -100.7465645 -0.176182E-07  0.157E-04    0.96      75.2  T
     SCC iter.                  ...        0 min,  0.065 sec
     gradient                   ...        0 min,  0.069 sec
 * total energy  :   -99.9205153 Eh     change       -0.1473444E-03 Eh
   gradient norm :     0.0108099 Eh/α   predicted    -0.1857568E-03 (  26.07%)
   displ. norm   :     0.1428166 α      lambda       -0.3080696E-03
   maximum displ.:     0.0503870 α      in ANC's #4, #2, #5, ...

........................................................................
.............................. CYCLE   36 ..............................
........................................................................

 iter      E             dE          RMSdq      gap      omega  full diag
   1   -100.7425993 -0.100743E+03  0.318E-02    0.95       0.0  T
   2   -100.7425485  0.507270E-04  0.291E-02    0.98       1.0  T
   3   -100.7425231  0.254689E-04  0.311E-02    0.93       1.0  T
   4   -100.7426046 -0.815578E-04  0.865E-03    0.96       1.4  T
   5   -100.7426124 -0.778403E-05  0.143E-03    0.96       8.2  T
   6   -100.7426125 -0.112122E-06  0.666E-04    0.96      17.7  T
   7   -100.7426126 -0.189262E-07  0.300E-04    0.96      39.3  T
     SCC iter.                  ...        0 min,  0.058 sec
     gradient                   ...        0 min,  0.068 sec
 * total energy  :   -99.9206703 Eh     change       -0.1550172E-03 Eh
   gradient norm :     0.0065622 Eh/α   predicted    -0.1571866E-03 (   1.40%)
   displ. norm   :     0.1535144 α      lambda       -0.1829342E-03
   maximum displ.:     0.0557756 α      in ANC's #5, #9, #1, ...

........................................................................
.............................. CYCLE   37 ..............................
........................................................................

 iter      E             dE          RMSdq      gap      omega  full diag
   1   -100.7446749 -0.100745E+03  0.286E-02    0.96       0.0  T
   2   -100.7446679  0.704447E-05  0.191E-02    0.97       1.0  T
   3   -100.7445392  0.128662E-03  0.348E-02    0.93       1.0  T
   4   -100.7446746 -0.135324E-03  0.595E-03    0.96       2.0  T
   5   -100.7446783 -0.373768E-05  0.976E-04    0.96      12.1  T
   6   -100.7446783 -0.297526E-07  0.463E-04    0.96      25.4  T
   7   -100.7446783 -0.808214E-09  0.213E-04    0.96      55.4  T
     SCC iter.                  ...        0 min,  0.057 sec
     gradient                   ...        0 min,  0.069 sec
 * total energy  :   -99.9208072 Eh     change       -0.1368776E-03 Eh
   gradient norm :     0.0042240 Eh/α   predicted    -0.9364701E-04 ( -31.58%)
   displ. norm   :     0.3717386 α      lambda       -0.2098901E-03
   maximum displ.:     0.1565712 α      in ANC's #5, #1, #4, ...

........................................................................
.............................. CYCLE   38 ..............................
........................................................................

 iter      E             dE          RMSdq      gap      omega  full diag
   1   -100.7451349 -0.100745E+03  0.692E-02    0.96       0.0  T
   2   -100.7451331  0.183427E-05  0.409E-02    0.96       1.0  T
   3   -100.7448413  0.291802E-03  0.500E-02    0.92       1.0  T
   4   -100.7451335 -0.292184E-03  0.852E-03    0.97       1.4  T
   5   -100.7451406 -0.719658E-05  0.205E-03    0.96       5.8  T
   6   -100.7451408 -0.112790E-06  0.922E-04    0.96      12.8  T
   7   -100.7451408 -0.201342E-07  0.338E-04    0.96      34.9  T
     SCC iter.                  ...        0 min,  0.057 sec
     gradient                   ...        0 min,  0.069 sec
 * total energy  :   -99.9209480 Eh     change       -0.1408193E-03 Eh
   gradient norm :     0.0043520 Eh/α   predicted    -0.1194515E-03 ( -15.17%)
   displ. norm   :     0.2767283 α      lambda       -0.1251379E-03
   maximum displ.:     0.1185567 α      in ANC's #5, #2, #1, ...

........................................................................
.............................. CYCLE   39 ..............................
........................................................................

 iter      E             dE          RMSdq      gap      omega  full diag
   1   -100.7457321 -0.100746E+03  0.471E-02    0.96       0.0  T
   2   -100.7457315  0.579667E-06  0.280E-02    0.96       1.0  T
   3   -100.7456174  0.114027E-03  0.306E-02    0.93       1.0  T
   4   -100.7457213 -0.103807E-03  0.120E-02    0.97       1.0  T
   5   -100.7457362 -0.149108E-04  0.128E-03    0.96       9.2  T
   6   -100.7457362 -0.617595E-08  0.657E-04    0.96      17.9  T
   7   -100.7457362 -0.156887E-07  0.246E-04    0.96      48.0  T
     SCC iter.                  ...        0 min,  0.057 sec
     gradient                   ...        0 min,  0.069 sec
 * total energy  :   -99.9210416 Eh     change       -0.9362871E-04 Eh
   gradient norm :     0.0047386 Eh/α   predicted    -0.6736543E-04 ( -28.05%)
   displ. norm   :     0.3507279 α      lambda       -0.1760244E-03
   maximum displ.:     0.1457215 α      in ANC's #2, #5, #1, ...

........................................................................
.............................. CYCLE   40 ..............................
........................................................................

 iter      E             dE          RMSdq      gap      omega  full diag
   1   -100.7464560 -0.100746E+03  0.560E-02    0.96       0.0  T
   2   -100.7464565 -0.522118E-06  0.332E-02    0.96       1.0  T
   3   -100.7463687  0.877671E-04  0.301E-02    0.98       1.0  T
   4   -100.7464381 -0.693636E-04  0.136E-02    0.95       1.0  T
   5   -100.7464609 -0.228787E-04  0.159E-03    0.96       7.4  T
   6   -100.7464610 -0.223994E-07  0.803E-04    0.96      14.7  T
   7   -100.7464610 -0.267394E-07  0.290E-04    0.96      40.6  T
     SCC iter.                  ...        0 min,  0.057 sec
     gradient                   ...        0 min,  0.069 sec
 * total energy  :   -99.9211716 Eh     change       -0.1299376E-03 Eh
   gradient norm :     0.0060562 Eh/α   predicted    -0.9883965E-04 ( -23.93%)
   displ. norm   :     0.3689299 α      lambda       -0.2029179E-03
   maximum displ.:     0.1673111 α      in ANC's #2, #1, #5, ...

........................................................................
.............................. CYCLE   41 ..............................
........................................................................

 iter      E             dE          RMSdq      gap      omega  full diag
   1   -100.7471927 -0.100747E+03  0.574E-02    0.96       0.0  T
   2   -100.7471676  0.250963E-04  0.378E-02    0.95       1.0  T
   3   -100.7467520  0.415629E-03  0.652E-02    1.02       1.0  T
   4   -100.7471795 -0.427543E-03  0.131E-02    0.95       1.0  T
   5   -100.7472023 -0.227672E-04  0.161E-03    0.96       7.3  T
   6   -100.7472023  0.435092E-08  0.827E-04    0.96      14.3  T
   7   -100.7472023 -0.409044E-07  0.252E-04    0.96      46.8  T
     SCC iter.                  ...        0 min,  0.056 sec
     gradient                   ...        0 min,  0.070 sec
 * total energy  :   -99.9213151 Eh     change       -0.1435066E-03 Eh
   gradient norm :     0.0055461 Eh/α   predicted    -0.1152791E-03 ( -19.67%)
   displ. norm   :     0.3548522 α      lambda       -0.1577064E-03
   maximum displ.:     0.1720458 α      in ANC's #2, #1, #5, ...

........................................................................
.............................. CYCLE   42 ..............................
........................................................................

 iter      E             dE          RMSdq      gap      omega  full diag
   1   -100.7458724 -0.100746E+03  0.538E-02    0.96       0.0  T
   2   -100.7458558  0.166037E-04  0.343E-02    0.95       1.0  T
   3   -100.7454658  0.389968E-03  0.619E-02    1.01       1.0  T
   4   -100.7458666 -0.400824E-03  0.950E-03    0.95       1.2  T
   5   -100.7458785 -0.119178E-04  0.145E-03    0.96       8.2  T
   6   -100.7458785  0.338318E-09  0.742E-04    0.96      15.9  T
   7   -100.7458786 -0.389044E-07  0.208E-04    0.96      56.6  T
     SCC iter.                  ...        0 min,  0.056 sec
     gradient                   ...        0 min,  0.069 sec
 * total energy  :   -99.9214337 Eh     change       -0.1186024E-03 Eh
   gradient norm :     0.0053522 Eh/α   predicted    -0.8878511E-04 ( -25.14%)
   displ. norm   :     0.3545528 α      lambda       -0.1924564E-03
   maximum displ.:     0.1656561 α      in ANC's #2, #1, #9, ...
 * RMSD in coord.:     0.8505395 α      energy gain  -0.1077523E-01 Eh

generating ANC from model Hessian ...
Using Lindh-Hessian (1995)
 Shifting diagonal of input Hessian by    9.9607397309705113E-003
 Lowest  eigenvalues of input Hessian
    0.000000    0.000000    0.000000    0.000000    0.000000    0.000000
    0.010000    0.010034    0.010111    0.010196    0.010293    0.010626
    0.010758    0.010827    0.011198    0.011469    0.011802    0.012551
 Highest eigenvalues
    1.927153    2.042987    2.044758    2.102749    2.183353    2.184441


........................................................................
.............................. CYCLE   43 ..............................
........................................................................

 iter      E             dE          RMSdq      gap      omega  full diag
   1   -100.7475558 -0.100748E+03  0.557E-02    0.97       0.0  T
   2   -100.7475169  0.388199E-04  0.384E-02    0.94       1.0  T
   3   -100.7470968  0.420158E-03  0.664E-02    1.02       1.0  T
   4   -100.7475533 -0.456568E-03  0.921E-03    0.95       1.3  T
   5   -100.7475647 -0.113133E-04  0.132E-03    0.96       8.9  T
   6   -100.7475647 -0.120373E-07  0.667E-04    0.96      17.7  T
   7   -100.7475647 -0.311787E-07  0.191E-04    0.96      61.6  T
     SCC iter.                  ...        0 min,  0.057 sec
     gradient                   ...        0 min,  0.069 sec
 * total energy  :   -99.9215755 Eh     change       -0.1418584E-03 Eh
   gradient norm :     0.0055316 Eh/α   predicted     0.0000000E+00 (-100.00%)
   displ. norm   :     0.0690188 α      lambda       -0.1277637E-03
   maximum displ.:     0.0309635 α      in ANC's #26, #2, #19, ...

........................................................................
.............................. CYCLE   44 ..............................
........................................................................

 iter      E             dE          RMSdq      gap      omega  full diag
   1   -100.7472057 -0.100747E+03  0.171E-02    0.96       0.0  T
   2   -100.7472037  0.196907E-05  0.112E-02    0.96       1.1  T
   3   -100.7471506  0.531239E-04  0.218E-02    0.94       1.0  T
   4   -100.7472061 -0.555391E-04  0.125E-03    0.96       9.5  T
   5   -100.7472062 -0.102010E-06  0.487E-04    0.96      24.2  T
   6   -100.7472062 -0.133245E-07  0.207E-04    0.96      56.9  T
     SCC iter.                  ...        0 min,  0.049 sec
     gradient                   ...        0 min,  0.070 sec
 * total energy  :   -99.9216816 Eh     change       -0.1060618E-03 Eh
   gradient norm :     0.0041246 Eh/α   predicted    -0.6461027E-04 ( -39.08%)
   displ. norm   :     0.2411568 α      lambda       -0.3051382E-03
   maximum displ.:     0.1117811 α      in ANC's #26, #2, #40, ...

........................................................................
.............................. CYCLE   45 ..............................
........................................................................

 iter      E             dE          RMSdq      gap      omega  full diag
   1   -100.7461426 -0.100746E+03  0.563E-02    0.95       0.0  T
   2   -100.7461341  0.846313E-05  0.349E-02    0.96       1.0  T
   3   -100.7456763  0.457883E-03  0.630E-02    0.90       1.0  T
   4   -100.7461452 -0.468995E-03  0.273E-03    0.96       4.3  T
   5   -100.7461456 -0.388559E-06  0.128E-03    0.96       9.2  T
   6   -100.7461457 -0.657641E-07  0.525E-04    0.96      22.5  T
   7   -100.7461457 -0.102211E-07  0.220E-04    0.96      53.5  T
     SCC iter.                  ...        0 min,  0.057 sec
     gradient                   ...        0 min,  0.069 sec
 * total energy  :   -99.9218757 Eh     change       -0.1941055E-03 Eh
   gradient norm :     0.0056907 Eh/α   predicted    -0.1614602E-03 ( -16.82%)
   displ. norm   :     0.2030875 α      lambda       -0.1593252E-03
   maximum displ.:     0.0930316 α      in ANC's #26, #2, #40, ...

........................................................................
.............................. CYCLE   46 ..............................
........................................................................

 iter      E             dE          RMSdq      gap      omega  full diag
   1   -100.7454235 -0.100745E+03  0.444E-02    0.95       0.0  T
   2   -100.7454241 -0.638106E-06  0.261E-02    0.95       1.0  T
   3   -100.7454229  0.124367E-05  0.375E-03    0.95       3.1  T
   4   -100.7454226  0.262228E-06  0.399E-03    0.96       3.0  T
   5   -100.7454243 -0.168217E-05  0.102E-03    0.95      11.5  T
   6   -100.7454243 -0.570638E-07  0.381E-04    0.95      31.0  T
   7   -100.7454243 -0.424285E-08  0.132E-04    0.95      89.4  T
     SCC iter.                  ...        0 min,  0.057 sec
     gradient                   ...        0 min,  0.068 sec
 * total energy  :   -99.9219974 Eh     change       -0.1217157E-03 Eh
   gradient norm :     0.0069312 Eh/α   predicted    -0.8297354E-04 ( -31.83%)
   displ. norm   :     0.3238426 α      lambda       -0.2400668E-03
   maximum displ.:     0.1539047 α      in ANC's #2, #26, #40, ...

........................................................................
.............................. CYCLE   47 ..............................
........................................................................

 iter      E             dE          RMSdq      gap      omega  full diag
   1   -100.7445303 -0.100745E+03  0.669E-02    0.96       0.0  T
   2   -100.7445286  0.177859E-05  0.397E-02    0.95       1.0  T
   3   -100.7443131  0.215477E-03  0.440E-02    0.99       1.0  T
   4   -100.7445311 -0.218028E-03  0.427E-03    0.95       2.8  T
   5   -100.7445328 -0.171540E-05  0.135E-03    0.95       8.7  T
   6   -100.7445329 -0.669468E-07  0.542E-04    0.95      21.7  T
   7   -100.7445329 -0.515440E-08  0.209E-04    0.95      56.5  T
     SCC iter.                  ...        0 min,  0.057 sec
     gradient                   ...        0 min,  0.069 sec
 * total energy  :   -99.9221784 Eh     change       -0.1810102E-03 Eh
   gradient norm :     0.0065292 Eh/α   predicted    -0.1326335E-03 ( -26.73%)
   displ. norm   :     0.3199618 α      lambda       -0.2500540E-03
   maximum displ.:     0.1652151 α      in ANC's #2, #26, #10, ...

........................................................................
.............................. CYCLE   48 ..............................
........................................................................

 iter      E             dE          RMSdq      gap      omega  full diag
   1   -100.7448515 -0.100745E+03  0.593E-02    0.96       0.0  T
   2   -100.7448454  0.607236E-05  0.360E-02    0.95       1.0  T
   3   -100.7444808  0.364619E-03  0.576E-02    1.01       1.0  T
   4   -100.7448521 -0.371362E-03  0.456E-03    0.95       2.6  T
   5   -100.7448543 -0.215747E-05  0.114E-03    0.95      10.3  T
   6   -100.7448543 -0.248183E-07  0.555E-04    0.95      21.2  T
   7   -100.7448543 -0.177651E-07  0.184E-04    0.95      64.1  T
     SCC iter.                  ...        0 min,  0.057 sec
     gradient                   ...        0 min,  0.069 sec
 * total energy  :   -99.9223635 Eh     change       -0.1850998E-03 Eh
   gradient norm :     0.0072696 Eh/α   predicted    -0.1378281E-03 ( -25.54%)
   displ. norm   :     0.2833415 α      lambda       -0.2465567E-03
   maximum displ.:     0.1572822 α      in ANC's #2, #10, #26, ...

........................................................................
.............................. CYCLE   49 ..............................
........................................................................

 iter      E             dE          RMSdq      gap      omega  full diag
   1   -100.7469391 -0.100747E+03  0.455E-02    0.96       0.0  T
   2   -100.7469376  0.143874E-05  0.275E-02    0.95       1.0  T
   3   -100.7468072  0.130447E-03  0.358E-02    0.98       1.0  T
   4   -100.7469343 -0.127077E-03  0.706E-03    0.95       1.7  T
   5   -100.7469411 -0.680029E-05  0.109E-03    0.95      10.8  T
   6   -100.7469411 -0.734439E-07  0.585E-04    0.95      20.1  T
   7   -100.7469412 -0.136062E-07  0.240E-04    0.95      49.2  T
     SCC iter.                  ...        0 min,  0.057 sec
     gradient                   ...        0 min,  0.069 sec
 * total energy  :   -99.9225498 Eh     change       -0.1862761E-03 Eh
   gradient norm :     0.0072844 Eh/α   predicted    -0.1331805E-03 ( -28.50%)
   displ. norm   :     0.3971991 α      lambda       -0.2643873E-03
   maximum displ.:     0.2206579 α      in ANC's #2, #10, #29, ...

........................................................................
.............................. CYCLE   50 ..............................
........................................................................

 iter      E             dE          RMSdq      gap      omega  full diag
   1   -100.7463638 -0.100746E+03  0.639E-02    0.95       0.0  T
   2   -100.7463648 -0.101312E-05  0.378E-02    0.95       1.0  T
   3   -100.7463027  0.621127E-04  0.275E-02    0.97       1.0  T
   4   -100.7463440 -0.413382E-04  0.140E-02    0.94       1.0  T
   5   -100.7463690 -0.249906E-04  0.140E-03    0.95       8.4  T
   6   -100.7463691 -0.735459E-07  0.713E-04    0.95      16.5  T
   7   -100.7463691 -0.184286E-07  0.268E-04    0.95      44.0  T
     SCC iter.                  ...        0 min,  0.057 sec
     gradient                   ...        0 min,  0.069 sec
 * total energy  :   -99.9227642 Eh     change       -0.2143799E-03 Eh
   gradient norm :     0.0093922 Eh/α   predicted    -0.1530852E-03 ( -28.59%)
   displ. norm   :     0.4665578 α      lambda       -0.4594278E-03
   maximum displ.:     0.2647892 α      in ANC's #2, #10, #8, ...

........................................................................
.............................. CYCLE   51 ..............................
........................................................................

 iter      E             dE          RMSdq      gap      omega  full diag
   1   -100.7497059 -0.100750E+03  0.674E-02    0.95       0.0  T
   2   -100.7497125 -0.665232E-05  0.408E-02    0.95       1.0  T
   3   -100.7496639  0.486837E-04  0.291E-02    0.95       1.0  T
   4   -100.7497191 -0.552669E-04  0.976E-03    0.94       1.2  T
   5   -100.7497275 -0.837275E-05  0.470E-03    0.96       2.5  T
   6   -100.7497300 -0.246373E-05  0.115E-03    0.95      10.2  T
   7   -100.7497300 -0.698746E-07  0.518E-04    0.95      22.7  T
   8   -100.7497300 -0.109015E-07  0.146E-04    0.95      80.6  T
     SCC iter.                  ...        0 min,  0.064 sec
     gradient                   ...        0 min,  0.069 sec
 * total energy  :   -99.9230668 Eh     change       -0.3026319E-03 Eh
   gradient norm :     0.0079135 Eh/α   predicted    -0.2797299E-03 (  -7.57%)
   displ. norm   :     0.6237860 α      lambda       -0.4315920E-03
   maximum displ.:     0.3495505 α      in ANC's #2, #29, #10, ...

........................................................................
.............................. CYCLE   52 ..............................
........................................................................

 iter      E             dE          RMSdq      gap      omega  full diag
   1   -100.7425322 -0.100743E+03  0.103E-01    0.95       0.0  T
   2   -100.7425340 -0.182774E-05  0.611E-02    0.94       1.0  T
   3   -100.7421556  0.378407E-03  0.684E-02    0.99       1.0  T
   4   -100.7423711 -0.215462E-03  0.384E-02    0.91       1.0  T
   5   -100.7425630 -0.191931E-03  0.339E-03    0.95       3.5  T
   6   -100.7425638 -0.804798E-06  0.150E-03    0.95       7.8  T
   7   -100.7425639 -0.724849E-07  0.682E-04    0.95      17.3  T
   8   -100.7425639 -0.303914E-07  0.210E-04    0.95      56.1  T
     SCC iter.                  ...        0 min,  0.064 sec
     gradient                   ...        0 min,  0.069 sec
 * total energy  :   -99.9232255 Eh     change       -0.1586542E-03 Eh
   gradient norm :     0.0130866 Eh/α   predicted    -0.2997704E-03 (  88.95%)
   displ. norm   :     0.1113172 α      lambda       -0.4365518E-03
   maximum displ.:     0.0331858 α      in ANC's #4, #34, #28, ...

........................................................................
.............................. CYCLE   53 ..............................
........................................................................

 iter      E             dE          RMSdq      gap      omega  full diag
   1   -100.7460728 -0.100746E+03  0.271E-02    0.95       0.0  T
   2   -100.7460724  0.464264E-06  0.165E-02    0.94       1.0  T
   3   -100.7460091  0.633129E-04  0.262E-02    0.97       1.0  T
   4   -100.7460693 -0.602155E-04  0.855E-03    0.94       1.4  T
   5   -100.7460776 -0.830812E-05  0.187E-03    0.95       6.3  T
   6   -100.7460779 -0.290183E-06  0.594E-04    0.95      19.8  T
   7   -100.7460779  0.837389E-09  0.341E-04    0.95      34.6  T
     SCC iter.                  ...        0 min,  0.057 sec
     gradient                   ...        0 min,  0.069 sec
 * total energy  :   -99.9234899 Eh     change       -0.2644260E-03 Eh
   gradient norm :     0.0047812 Eh/α   predicted    -0.2209916E-03 ( -16.43%)
   displ. norm   :     0.3244309 α      lambda       -0.2033782E-03
   maximum displ.:     0.1924620 α      in ANC's #2, #4, #1, ...

........................................................................
.............................. CYCLE   54 ..............................
........................................................................

 iter      E             dE          RMSdq      gap      omega  full diag
   1   -100.7464472 -0.100746E+03  0.423E-02    0.96       0.0  T
   2   -100.7464235  0.237238E-04  0.300E-02    0.94       1.0  T
   3   -100.7462598  0.163651E-03  0.454E-02    0.99       1.0  T
   4   -100.7464271 -0.167282E-03  0.151E-02    0.94       1.0  T
   5   -100.7464578 -0.307093E-04  0.106E-03    0.95      11.1  T
   6   -100.7464579 -0.349441E-07  0.666E-04    0.95      17.7  T
   7   -100.7464579 -0.213820E-07  0.214E-04    0.95      55.1  T
     SCC iter.                  ...        0 min,  0.057 sec
     gradient                   ...        0 min,  0.069 sec
 * total energy  :   -99.9236432 Eh     change       -0.1533352E-03 Eh
   gradient norm :     0.0048422 Eh/α   predicted    -0.1123932E-03 ( -26.70%)
[...]
         :: HOMO-LUMO gap              0.951344082211 eV    ::
         ::.................................................::
         :: SCC energy              -100.748777608922 Eh    ::
         :: -> isotropic ES            0.104015333410 Eh    ::
         :: -> anisotropic ES          0.006402819696 Eh    ::
         :: -> anisotropic XC          0.045323739077 Eh    ::
         :: -> dispersion             -0.074921038320 Eh    ::
         :: repulsion energy           1.445076270008 Eh    ::
         :: add. restraining          -0.622821230831 Eh    ::
         :: total charge               1.000000000000 e     ::
         :::::::::::::::::::::::::::::::::::::::::::::::::::::

           -------------------------------------------------
          |                Property Printout                |
           -------------------------------------------------

    * Orbital Energies and Occupations

         #    Occupation            Energy/Eh            Energy/eV
      -------------------------------------------------------------
         1        2.0000           -0.8164376             -22.2164
       ...           ...                  ...                  ...
        78        1.9971           -0.5316579             -14.4671
        79        1.9966           -0.5293499             -14.4043
        80        1.9959           -0.5264744             -14.3261
        81        1.9943           -0.5210583             -14.1787
        82        1.9938           -0.5197146             -14.1422
        83        1.9930           -0.5179061             -14.0929
        84        1.9916           -0.5150681             -14.0157
        85        1.9717           -0.4956040             -13.4861
        86        1.9629           -0.4912349             -13.3672
        87        1.8935           -0.4739689             -12.8974
        88        1.8464           -0.4677805             -12.7290
        89        1.8131           -0.4643795             -12.6364
        90        1.7287           -0.4577282             -12.4554 (HOMO)
        91        0.8239           -0.4227670             -11.5041 (LUMO)
        92        0.0086           -0.3422484              -9.3131
        93        0.0022           -0.3207892              -8.7291
        94        0.0019           -0.3184681              -8.6660
        95        0.0015           -0.3146102              -8.5610
        96        0.0014           -0.3131211              -8.5205
        97        0.0000           -0.1961266              -5.3369
        98        0.0000           -0.1905780              -5.1859
        99                         -0.1136146              -3.0916
       100                         -0.0711910              -1.9372
       101                         -0.0645225              -1.7557
       ...                                ...                  ...
       171                          0.7917437              21.5444
      -------------------------------------------------------------
                  HL-Gap            0.0349613 Eh            0.9513 eV
             Fermi-level           -0.4284028 Eh          -11.6574 eV

     #   Z          covCN         q      C6AA      α(0)
     1   7 N        1.774    -0.263    27.655     7.787
     2   6 C        2.824     0.101    25.764     8.317
     3   6 C        3.906     0.010    20.346     6.411
     4   6 C        2.975     0.005    27.905     8.665
     5   6 C        2.919    -0.078    29.948     8.974
     6   6 C        2.862     0.131    25.131     8.217
     7   8 O        1.706    -0.226    17.753     5.689
     8   6 C        3.644     0.026    20.470     6.503
     9   6 C        2.864     0.132    25.109     8.214
    10   8 O        1.706    -0.222    17.688     5.678
    11   6 C        3.645     0.025    20.490     6.506
    12   6 C        2.913    -0.069    29.714     8.939
    13   6 C        2.921    -0.047    29.168     8.857
    14   6 C        3.807    -0.062    21.683     6.629
    15   6 C        2.887    -0.049    29.227     8.863
    16   6 C        3.756    -0.014    20.886     6.516
    17   7 N        2.728    -0.136    23.941     7.267
    18   6 C        3.751     0.005    20.550     6.465
    19   6 C        3.808    -0.072    21.878     6.658
    20   6 C        2.968     0.011    27.773     8.644
    21   6 C        2.922    -0.044    29.095     8.845
    22   6 C        2.912    -0.065    29.619     8.924
    23   6 C        2.864     0.136    25.036     8.202
    24   8 O        1.706    -0.214    17.550     5.656
    25   6 C        3.645     0.023    20.522     6.511
    26   6 C        2.862     0.136    25.024     8.200
    27   8 O        1.706    -0.216    17.589     5.662
    28   6 C        3.644     0.025    20.499     6.508
    29   6 C        2.919    -0.075    29.878     8.964
    30   6 C        3.705    -0.045    21.524     6.632
    31   6 C        3.853    -0.007    20.660     6.465
    32   6 C        3.756    -0.118    22.813     6.810
    33   6 C        3.755    -0.122    22.891     6.822
    34   1 H        0.926     0.057     2.238     2.340
    35   1 H        0.924     0.056     2.241     2.341
    36   1 H        0.925     0.083     1.943     2.180
    37   1 H        0.924     0.048     2.340     2.392
    38   1 H        0.924     0.058     2.223     2.331
    39   1 H        0.925     0.083     1.945     2.181
    40   1 H        0.924     0.053     2.280     2.361
    41   1 H        0.926     0.059     2.216     2.328
    42   1 H        0.926     0.048     2.348     2.396
    43   1 H        0.925     0.069     2.093     2.262
    44   1 H        0.923     0.077     2.008     2.216
    45   1 H        0.930     0.097     1.816     2.107
    46   1 H        0.926     0.066     2.132     2.283
    47   1 H        0.923     0.014     2.834     2.633
    48   1 H        0.922     0.068     2.109     2.271
    49   1 H        0.923     0.031     2.571     2.508
    50   1 H        0.924     0.047     2.354     2.399
    51   1 H        0.924     0.066     2.136     2.285
    52   1 H        0.925     0.054     2.268     2.355
    53   1 H        0.926     0.054     2.268     2.355
    54   1 H        0.926     0.061     2.183     2.310
    55   1 H        0.924     0.058     2.220     2.330
    56   1 H        0.924     0.060     2.204     2.322
    57   1 H        0.925     0.085     1.926     2.171
    58   1 H        0.925     0.085     1.933     2.174
    59   1 H        0.924     0.054     2.267     2.354
    60   1 H        0.924     0.058     2.228     2.334
    61   1 H        0.926     0.055     2.258     2.350
    62   1 H        0.925     0.063     2.163     2.300
    63   1 H        0.925     0.052     2.295     2.369
    64   1 H        0.923     0.031     2.569     2.506
    65   1 H        0.924     0.040     2.453     2.450
    66   1 H        0.925     0.069     2.098     2.265
    67   1 H        0.925     0.037     2.490     2.468
    68   1 H        0.925     0.055     2.257     2.349
    69   1 H        0.925     0.071     2.078     2.254
    70   1 H        0.925     0.038     2.471     2.458
    71   1 H        0.925     0.056     2.243     2.342
    72   1 H        0.860     0.163     1.318     1.798

 Mol. C6AA /au·bohr⁶  :      47451.869720
 Mol. C8AA /au·bohr⁸  :    1081833.450398
 Mol. α(0) /au        :        334.432662


Wiberg/Mayer (AO) data.
largest (>0.10) Wiberg bond orders for each atom

 ---------------------------------------------------------------------------
     #   Z sym  total        # sym  WBO       # sym  WBO       # sym  WBO
 ---------------------------------------------------------------------------
     1   7 N    3.010 --     2 C    1.956    72 H    0.939
     2   6 C    3.942 --     1 N    1.956     3 C    0.992    47 H    0.930
     3   6 C    3.933 --     2 C    0.992     4 C    0.976    31 C    0.946
                            14 C    0.908
     4   6 C    3.933 --    13 C    1.406     5 C    1.370     3 C    0.976
     5   6 C    3.956 --     6 C    1.391     4 C    1.370    34 H    0.957
     6   6 C    3.888 --     5 C    1.391     9 C    1.215     7 O    1.103
     7   8 O    2.248 --     6 C    1.103     8 C    0.977
     8   6 C    3.929 --     7 O    0.977    36 H    0.976    37 H    0.973
                            35 H    0.972
     9   6 C    3.888 --    12 C    1.383     6 C    1.215    10 O    1.109
    10   8 O    2.249 --     9 C    1.109    11 C    0.975
    11   6 C    3.927 --    39 H    0.976    10 O    0.975    38 H    0.972
                            40 H    0.972
    12   6 C    3.951 --    13 C    1.411     9 C    1.383    41 H    0.963
    13   6 C    3.943 --    12 C    1.411     4 C    1.406    42 H    0.963
    14   6 C    3.978 --    15 C    1.095    43 H    0.964    44 H    0.920
                             3 C    0.908
    15   6 C    3.205 --    14 C    1.095    16 C    1.053    46 H    0.969
    16   6 C    3.962 --    15 C    1.053    17 N    0.986    45 H    0.947
                            48 H    0.919
    17   7 N    3.079 --    30 C    1.017    18 C    1.007    16 C    0.986
    18   6 C    3.965 --    17 N    1.007    19 C    0.975    50 H    0.968
                            49 H    0.957
    19   6 C    3.981 --    20 C    1.014    18 C    0.975    52 H    0.970
                            51 H    0.967
    20   6 C    3.922 --    29 C    1.389    21 C    1.385    19 C    1.014
    21   6 C    3.924 --    22 C    1.429    20 C    1.385    53 H    0.967
    22   6 C    3.948 --    21 C    1.429    23 C    1.370    54 H    0.962
    23   6 C    3.868 --    22 C    1.370    26 C    1.208    24 O    1.118
    24   8 O    2.246 --    23 C    1.118    25 C    0.975
    25   6 C    3.924 --    57 H    0.976    24 O    0.975    56 H    0.971
                            55 H    0.971
    26   6 C    3.875 --    29 C    1.383    23 C    1.208    27 O    1.115
    27   8 O    2.249 --    26 C    1.115    28 C    0.976
    28   6 C    3.926 --    58 H    0.976    27 O    0.976    59 H    0.972
                            60 H    0.971
    29   6 C    3.949 --    20 C    1.389    26 C    1.383    61 H    0.961
    30   6 C    3.968 --    17 N    1.017    63 H    0.977    62 H    0.975
                            64 H    0.965
    31   6 C    3.968 --    33 C    1.008    32 C    1.004    65 H    0.958
                             3 C    0.946
    32   6 C    3.971 --    31 C    1.004    67 H    0.981    68 H    0.980
                            66 H    0.972
    33   6 C    3.972 --    31 C    1.008    70 H    0.980    71 H    0.979
                            69 H    0.971
    34   1 H    0.995 --     5 C    0.957
    35   1 H    0.992 --     8 C    0.972
    36   1 H    0.992 --     8 C    0.976
    37   1 H    0.992 --     8 C    0.973
    38   1 H    0.991 --    11 C    0.972
    39   1 H    0.992 --    11 C    0.976
    40   1 H    0.991 --    11 C    0.972
    41   1 H    0.994 --    12 C    0.963
    42   1 H    0.997 --    13 C    0.963
    43   1 H    0.993 --    14 C    0.964
    44   1 H    0.947 --    14 C    0.920
    45   1 H    0.967 --    16 C    0.947
    46   1 H    0.994 --    15 C    0.969
    47   1 H    0.978 --     2 C    0.930
    48   1 H    0.951 --    16 C    0.919
    49   1 H    0.980 --    18 C    0.957
    50   1 H    0.997 --    18 C    0.968
    51   1 H    0.992 --    19 C    0.967
    52   1 H    0.995 --    19 C    0.970
    53   1 H    0.996 --    21 C    0.967
    54   1 H    0.994 --    22 C    0.962
    55   1 H    0.988 --    25 C    0.971
    56   1 H    0.989 --    25 C    0.971
    57   1 H    0.992 --    25 C    0.976
    58   1 H    0.992 --    28 C    0.976
    59   1 H    0.990 --    28 C    0.972
    60   1 H    0.990 --    28 C    0.971
    61   1 H    0.995 --    29 C    0.961
    62   1 H    0.992 --    30 C    0.975
    63   1 H    0.996 --    30 C    0.977
    64   1 H    0.979 --    30 C    0.965
    65   1 H    0.989 --    31 C    0.958
    66   1 H    0.989 --    32 C    0.972
    67   1 H    0.996 --    32 C    0.981
    68   1 H    0.992 --    32 C    0.980
    69   1 H    0.989 --    33 C    0.971
    70   1 H    0.995 --    33 C    0.980
    71   1 H    0.992 --    33 C    0.979
    72   1 H    0.966 --     1 N    0.939
 ---------------------------------------------------------------------------

Topologies differ in total number of bonds
Writing topology from bond orders to xtbtopo.mol

molecular dipole:
                 x           y           z       tot (Debye)
 q only:        0.631       0.265      -0.197
   full:        0.920       0.121       0.085       2.368
molecular quadrupole (traceless):
                xx          xy          yy          xz          yz          zz
 q only:       58.287      -1.956     -18.065      -5.730      -7.143     -40.222
  q+dip:       50.995       3.236     -17.480      -2.928      -8.964     -33.515
   full:       51.851       3.775     -17.976      -4.957      -9.204     -33.875

           -------------------------------------------------
          |                Geometry Summary                 |
           -------------------------------------------------

      molecular mass/u    :      455.6105846
   center of mass at/Å    :        0.0309381       0.0026326      -0.0231923
  moments of inertia/u·Å² :        0.2653116E+04   0.1068863E+05   0.1201355E+05
rotational constants/cm⁻¹ :        0.6353899E-02   0.1577156E-02   0.1403218E-02

 * 66 selected distances

     #   Z          #   Z                                           value/Å
     1   7 N        2   6 C                                       1.2503774
     4   6 C        5   6 C                                       1.3947871
     5   6 C        6   6 C                                       1.3863547
     6   6 C        7   8 O                                       1.3483882
     7   8 O        8   6 C                                       1.4084544
     6   6 C        9   6 C                                       1.4226462
     9   6 C       10   8 O                                       1.3459622
    10   8 O       11   6 C                                       1.4090642
     9   6 C       12   6 C                                       1.3870454
     4   6 C       13   6 C                                       1.3868297
    12   6 C       13   6 C                                       1.3876099
    14   6 C       15   6 C                                       1.4731419
    16   6 C       17   7 N                                       1.4687097
    17   7 N       18   6 C                                       1.4458194
    18   6 C       19   6 C                                       1.5384947 (max)
    20   6 C       21   6 C                                       1.3895922
    21   6 C       22   6 C                                       1.3845930
    22   6 C       23   6 C                                       1.3895329
    23   6 C       24   8 O                                       1.3437024
    24   8 O       25   6 C                                       1.4091295
    23   6 C       26   6 C                                       1.4249925
    26   6 C       27   8 O                                       1.3447970
    27   8 O       28   6 C                                       1.4084844
    20   6 C       29   6 C                                       1.3914797
    26   6 C       29   6 C                                       1.3880285
    17   7 N       30   6 C                                       1.4426405
    31   6 C       32   6 C                                       1.5277241
    31   6 C       33   6 C                                       1.5260552
     5   6 C       34   1 H                                       1.0768555
     8   6 C       35   1 H                                       1.0939951
     8   6 C       36   1 H                                       1.0882766
     8   6 C       37   1 H                                       1.0949022
    11   6 C       38   1 H                                       1.0938591
    11   6 C       39   1 H                                       1.0883591
    11   6 C       40   1 H                                       1.0944836
    12   6 C       41   1 H                                       1.0778163
    13   6 C       42   1 H                                       1.0790214
    14   6 C       43   1 H                                       1.0896424
    14   6 C       44   1 H                                       1.0983218
    16   6 C       45   1 H                                       0.8456698 (min)
    15   6 C       46   1 H                                       1.0761699
     2   6 C       47   1 H                                       1.0984978
    16   6 C       48   1 H                                       1.1098686
    18   6 C       49   1 H                                       1.1032196
    18   6 C       50   1 H                                       1.0929486
    19   6 C       51   1 H                                       1.0905171
    19   6 C       52   1 H                                       1.0893972
    21   6 C       53   1 H                                       1.0793037
    22   6 C       54   1 H                                       1.0777966
    25   6 C       55   1 H                                       1.0942144
    25   6 C       56   1 H                                       1.0939827
    25   6 C       57   1 H                                       1.0883690
    28   6 C       58   1 H                                       1.0883217
    28   6 C       59   1 H                                       1.0943344
    28   6 C       60   1 H                                       1.0940486
    29   6 C       61   1 H                                       1.0787376
    30   6 C       62   1 H                                       1.0868554
    30   6 C       63   1 H                                       1.0886373
    30   6 C       64   1 H                                       1.1003619
    31   6 C       65   1 H                                       1.0971510
    32   6 C       66   1 H                                       1.0857414
    32   6 C       67   1 H                                       1.0872014
    32   6 C       68   1 H                                       1.0866573
    33   6 C       69   1 H                                       1.0856110
    33   6 C       70   1 H                                       1.0865917
    33   6 C       71   1 H                                       1.0869741

 * 4 distinct bonds (by element types)

   Z      Z             #   av. dist./Å        max./Å        min./Å
   1 H    6 C          38     1.0832293     1.1098686     0.8456698
   6 C    6 C          16     1.4249317     1.5384947     1.3845930
   6 C    7 N           4     1.4018867     1.4687097     1.2503774
   6 C    8 O           8     1.3772478     1.4091295     1.3437024


optimized geometry written to: xtbopt.xyz


           -------------------------------------------------
          | TOTAL ENERGY              -99.925203747348 Eh   |
          | GRADIENT NORM               0.001966320767 Eh/α |
          | HOMO-LUMO GAP               0.951344082211 eV   |
           -------------------------------------------------

------------------------------------------------------------------------
 * finished run on 2024/04/06 at 11:16:39.193     
------------------------------------------------------------------------
 total:
 * wall-time:     0 d,  0 h,  0 min, 11.169 sec
 *  cpu-time:     0 d,  0 h,  0 min, 11.126 sec
 * ratio c/w:     0.996 speedup
 SCF:
 * wall-time:     0 d,  0 h,  0 min,  0.194 sec
 *  cpu-time:     0 d,  0 h,  0 min,  0.190 sec
 * ratio c/w:     0.976 speedup
 ANC optimizer:
 * wall-time:     0 d,  0 h,  0 min, 10.933 sec
 *  cpu-time:     0 d,  0 h,  0 min, 10.911 sec
 * ratio c/w:     0.998 speedup

