      -----------------------------------------------------------      
     |                   =====================                   |     
     |                           x T B                           |     
     |                   =====================                   |     
     |                         S. Grimme                         |     
     |          Mulliken Center for Theoretical Chemistry        |     
     |                    University of Bonn                     |     
      -----------------------------------------------------------      

   * xtb version 6.6.1 (8d0f1dd) compiled by 'conda@1efc2f54142f' on 2023-08-01

   xtb is free software: you can redistribute it and/or modify it under
   the terms of the GNU Lesser General Public License as published by
   the Free Software Foundation, either version 3 of the License, or
   (at your option) any later version.
   
   xtb is distributed in the hope that it will be useful,
   but WITHOUT ANY WARRANTY; without even the implied warranty of
   MERCHANTABILITY or FITNESS FOR A PARTICULAR PURPOSE.  See the
   GNU Lesser General Public License for more details.
   
   Cite this work as:
   * C. Bannwarth, E. Caldeweyher, S. Ehlert, A. Hansen, P. Pracht,
     J. Seibert, S. Spicher, S. Grimme, WIREs Comput. Mol. Sci., 2020, 11,
     e01493. DOI: 10.1002/wcms.1493
   
   for GFN2-xTB:
   * C. Bannwarth, S. Ehlert and S. Grimme., J. Chem. Theory Comput., 2019,
     15, 1652-1671. DOI: 10.1021/acs.jctc.8b01176
   for GFN1-xTB:
   * S. Grimme, C. Bannwarth, P. Shushkov, J. Chem. Theory Comput., 2017,
     13, 1989-2009. DOI: 10.1021/acs.jctc.7b00118
   for GFN0-xTB:
   * P. Pracht, E. Caldeweyher, S. Ehlert, S. Grimme, ChemRxiv, 2019, preprint.
     DOI: 10.26434/chemrxiv.8326202.v1
   for GFN-FF:
   * S. Spicher and S. Grimme, Angew. Chem. Int. Ed., 2020, 59, 15665-15673.
     DOI: 10.1002/anie.202004239
   
   for ALPB and GBSA implicit solvation:
   * S. Ehlert, M. Stahn, S. Spicher, S. Grimme, J. Chem. Theory Comput.,
     2021, 17, 4250-4261. DOI: 10.1021/acs.jctc.1c00471
   
   for DFT-D4:
   * E. Caldeweyher, C. Bannwarth and S. Grimme, J. Chem. Phys., 2017,
     147, 034112. DOI: 10.1063/1.4993215
   * E. Caldeweyher, S. Ehlert, A. Hansen, H. Neugebauer, S. Spicher,
     C. Bannwarth and S. Grimme, J. Chem. Phys., 2019, 150, 154122.
     DOI: 10.1063/1.5090222
   * E. Caldeweyher, J.-M. Mewes, S. Ehlert and S. Grimme, Phys. Chem. Chem. Phys.
     2020, 22, 8499-8512. DOI: 10.1039/D0CP00502A
   
   for sTDA-xTB:
   * S. Grimme and C. Bannwarth, J. Chem. Phys., 2016, 145, 054103.
     DOI: 10.1063/1.4959605
   
   in the mass-spec context:
   * V. Asgeirsson, C. Bauer and S. Grimme, Chem. Sci., 2017, 8, 4879.
     DOI: 10.1039/c7sc00601b
   * J. Koopman and S. Grimme, ACS Omega 2019, 4, 12, 15120-15133.
     DOI: 10.1021/acsomega.9b02011
   
   for metadynamics refer to:
   * S. Grimme, J. Chem. Theory Comput., 2019, 155, 2847-2862
     DOI: 10.1021/acs.jctc.9b00143
   
   for SPH calculations refer to:
   * S. Spicher and S. Grimme, J. Chem. Theory Comput., 2021, 17, 1701-1714
     DOI: 10.1021/acs.jctc.0c01306
   
   with help from (in alphabetical order)
   P. Atkinson, C. Bannwarth, F. Bohle, G. Brandenburg, E. Caldeweyher
   M. Checinski, S. Dohm, S. Ehlert, S. Ehrlich, I. Gerasimov, C. Hölzer
   A. Katbashev, J. Koopman, C. Lavigne, S. Lehtola, F. März, M. Müller,
   F. Musil, H. Neugebauer, J. Pisarek, C. Plett, P. Pracht, F. Pultar,
   J. Seibert, P. Shushkov, S. Spicher, M. Stahn, M. Steiner, T. Strunk,
   J. Stückrath, T. Rose, and J. Unsleber
   
 * started run on 2024/04/06 at 11:16:39.226     

           -------------------------------------------------
          |                Calculation Setup                |
           -------------------------------------------------

          program call               : xtb xtbopt.xyz --opt crude --input .xc2 --gfn2
          hostname                   : n-62-30-23
          coordinate file            : xtbopt.xyz
          omp threads                :                     1

   ID    Z sym.   atoms
    1    7 N      1, 17
    2    6 C      2-6, 8, 9, 11-16, 18-23, 25, 26, 28-33
    3    8 O      7, 10, 24, 27
    4    1 H      34-72
########################################################################
[WARNING] Please study the warnings concerning your input carefully
-1- readin_getIntValue: could not parse ''
########################################################################

           -------------------------------------------------
          |                 G F N 2 - x T B                 |
           -------------------------------------------------

        Reference                      10.1021/acs.jctc.8b01176
      * Hamiltonian:
        H0-scaling (s, p, d)           1.850000    2.230000    2.230000
        zeta-weighting                 0.500000
      * Dispersion:
        s8                             2.700000
        a1                             0.520000
        a2                             5.000000
        s9                             5.000000
      * Repulsion:
        kExp                           1.500000    1.000000
        rExp                           1.000000
      * Coulomb:
        alpha                          2.000000
        third order                    shell-resolved
        anisotropic                    true
        a3                             3.000000
        a5                             4.000000
        cn-shift                       1.200000
        cn-exp                         4.000000
        max-rad                        5.000000

q/qsh data taken from xtbrestart
CAMM data taken from xtbrestart

          ...................................................
          :                      SETUP                      :
          :.................................................:
          :  # basis functions                 171          :
          :  # atomic orbitals                 171          :
          :  # shells                          105          :
          :  # electrons                       180          :
          :  max. iterations                   250          :
          :  Hamiltonian                  GFN2-xTB          :
          :  restarted?                       true          :
          :  GBSA solvation                  false          :
          :  PC potential                    false          :
          :  electronic temp.         5000.0000000     K    :
          :  accuracy                    1.0000000          :
          :  -> integral cutoff          0.2500000E+02      :
          :  -> integral neglect         0.1000000E-07      :
          :  -> SCF convergence          0.1000000E-05 Eh   :
          :  -> wf. convergence          0.1000000E-03 e    :
          :  Broyden damping             0.4000000          :
          ...................................................

 iter      E             dE          RMSdq      gap      omega  full diag
   1   -100.7487776 -0.100749E+03  0.442E-05    0.95       0.0  T
   2   -100.7487776  0.145410E-08  0.120E-04    0.95      98.1  T
   3   -100.7487776 -0.164736E-08  0.855E-06    0.95    1378.2  T

   *** convergence criteria satisfied after 3 iterations ***

         #    Occupation            Energy/Eh            Energy/eV
      -------------------------------------------------------------
         1        2.0000           -0.8164378             -22.2164
       ...           ...                  ...                  ...
        84        1.9916           -0.5150683             -14.0157
        85        1.9717           -0.4956042             -13.4861
        86        1.9629           -0.4912346             -13.3672
        87        1.8935           -0.4739690             -12.8974
        88        1.8464           -0.4677806             -12.7290
        89        1.8131           -0.4643797             -12.6364
        90        1.7287           -0.4577279             -12.4554 (HOMO)
        91        0.8239           -0.4227675             -11.5041 (LUMO)
        92        0.0086           -0.3422485              -9.3131
        93        0.0022           -0.3207894              -8.7291
        94        0.0019           -0.3184683              -8.6660
        95        0.0015           -0.3146099              -8.5610
       ...           ...                  ...                  ...
       171                          0.7917434              21.5444
      -------------------------------------------------------------
                  HL-Gap            0.0349604 Eh            0.9513 eV
             Fermi-level           -0.4284030 Eh          -11.6574 eV

 SCC (total)                   0 d,  0 h,  0 min,  0.121 sec
 SCC setup                      ...        0 min,  0.001 sec (  0.978%)
 Dispersion                     ...        0 min,  0.002 sec (  1.670%)
 classical contributions        ...        0 min,  0.001 sec (  0.441%)
 integral evaluation            ...        0 min,  0.018 sec ( 15.137%)
 iterations                     ...        0 min,  0.028 sec ( 23.520%)
 molecular gradient             ...        0 min,  0.070 sec ( 57.706%)
 printout                       ...        0 min,  0.001 sec (  0.534%)

         :::::::::::::::::::::::::::::::::::::::::::::::::::::
         ::                     SUMMARY                     ::
         :::::::::::::::::::::::::::::::::::::::::::::::::::::
         :: total energy             -99.302382516556 Eh    ::
         :: gradient norm              0.499297856152 Eh/a0 ::
         :: HOMO-LUMO gap              0.951319681140 eV    ::
         ::.................................................::
         :: SCC energy              -100.748777608961 Eh    ::
         :: -> isotropic ES            0.104014899726 Eh    ::
         :: -> anisotropic ES          0.006402932602 Eh    ::
         :: -> anisotropic XC          0.045323743770 Eh    ::
         :: -> dispersion             -0.074921047857 Eh    ::
         :: repulsion energy           1.445076270008 Eh    ::
         :: add. restraining           0.000000000000 Eh    ::
         :: total charge               1.000000000000 e     ::
         :::::::::::::::::::::::::::::::::::::::::::::::::::::

      ----------------------------------------------------------- 
     |                   =====================                   |
     |                        A N C O P T                        |
     |                   =====================                   |
     |               Approximate Normal Coordinate               |
     |                Rational Function Optimizer                |
      ----------------------------------------------------------- 

          ...................................................
          :                      SETUP                      :
          :.................................................:
          :   optimization level             crude          :
          :   max. optcycles                   200          :
          :   ANC micro-cycles                  20          :
          :   degrees of freedom               210          :
          :.................................................:
          :   RF solver                   davidson          :
          :   write xtbopt.log                true          :
          :   linear?                        false          :
          :   energy convergence         0.5000000E-03 Eh   :
          :   grad. convergence          0.1000000E-01 Eh/α :
          :   maxmium RF displ.          1.0000000          :
          :   Hlow (freq-cutoff)         0.1000000E-01      :
          :   Hmax (freq-cutoff)         5.0000000          :
          :   S6 in model hess.         20.0000000          :
          ...................................................

generating ANC from model Hessian ...
Using Lindh-Hessian (1995)
 Shifting diagonal of input Hessian by    9.9562496264805015E-003
 Lowest  eigenvalues of input Hessian
    0.000000    0.000000    0.000000    0.000000    0.000000    0.000000
    0.010000    0.010021    0.010107    0.010223    0.010307    0.010622
    0.010645    0.010718    0.010877    0.011468    0.011707    0.012477
 Highest eigenvalues
    1.980297    2.042509    2.044826    2.098579    2.180786    2.183609


........................................................................
.............................. CYCLE    1 ..............................
........................................................................

 iter      E             dE          RMSdq      gap      omega  full diag
   1   -100.7487776 -0.100749E+03  0.398E-06    0.95       0.0  T
   2   -100.7487776 -0.184741E-12  0.301E-06    0.95    3909.4  T
   3   -100.7487776 -0.710543E-12  0.155E-06    0.95    7593.2  T
     SCC iter.                  ...        0 min,  0.026 sec
     gradient                   ...        0 min,  0.069 sec
 * total energy  :   -99.3023825 Eh     change       -0.1520561E-11 Eh
   gradient norm :     0.4992979 Eh/α   predicted     0.0000000E+00 (-100.00%)
   displ. norm   :     0.2949845 α      lambda       -0.1319127E+00
   maximum displ.:     0.2262185 α      in ANC's #205, #139, #136, ...

........................................................................
.............................. CYCLE    2 ..............................
........................................................................

 iter      E             dE          RMSdq      gap      omega  full diag
   1   -100.7346955 -0.100735E+03  0.165E-01    0.95       0.0  T
   2   -100.7348190 -0.123455E-03  0.909E-02    0.93       1.0  T
   3   -100.7337819  0.103708E-02  0.103E-01    1.04       1.0  T
   4   -100.7346878 -0.905903E-03  0.469E-02    0.91       1.0  T
   5   -100.7348790 -0.191184E-03  0.115E-02    0.96       1.0  T
   6   -100.7348880 -0.903630E-05  0.425E-03    0.95       2.8  T
   7   -100.7348884 -0.416955E-06  0.126E-03    0.95       9.3  T
   8   -100.7348885 -0.703779E-07  0.525E-04    0.95      22.4  T
   9   -100.7348885 -0.883331E-08  0.155E-04    0.95      76.0  T
     SCC iter.                  ...        0 min,  0.074 sec
     gradient                   ...        0 min,  0.070 sec
 * total energy  :   -99.3636024 Eh     change       -0.6121985E-01 Eh
   gradient norm :     0.0579742 Eh/α   predicted    -0.7169582E-01 (  17.11%)
   displ. norm   :     0.0764265 α      lambda       -0.2095391E-02
   maximum displ.:     0.0307155 α      in ANC's #205, #41, #34, ...

........................................................................
.............................. CYCLE    3 ..............................
........................................................................

 iter      E             dE          RMSdq      gap      omega  full diag
   1   -100.7330501 -0.100733E+03  0.286E-02    0.95       0.0  T
   2   -100.7330505 -0.363254E-06  0.171E-02    0.95       1.0  T
   3   -100.7329791  0.714431E-04  0.267E-02    0.98       1.0  T
   4   -100.7330506 -0.715649E-04  0.875E-03    0.95       1.3  T
   5   -100.7330571 -0.651112E-05  0.187E-03    0.95       6.3  T
   6   -100.7330573 -0.205288E-06  0.619E-04    0.95      19.1  T
   7   -100.7330574 -0.797630E-08  0.280E-04    0.95      42.1  T
     SCC iter.                  ...        0 min,  0.057 sec
     gradient                   ...        0 min,  0.069 sec
 * total energy  :   -99.3652263 Eh     change       -0.1623957E-02 Eh
   gradient norm :     0.0325542 Eh/α   predicted    -0.1061180E-02 ( -34.65%)
   displ. norm   :     0.1039225 α      lambda       -0.1492536E-02
   maximum displ.:     0.0393596 α      in ANC's #205, #7, #41, ...

........................................................................
.............................. CYCLE    4 ..............................
........................................................................

 iter      E             dE          RMSdq      gap      omega  full diag
   1   -100.7303455 -0.100730E+03  0.329E-02    0.95       0.0  T
   2   -100.7303491 -0.361942E-05  0.191E-02    0.95       1.0  T
   3   -100.7302855  0.636280E-04  0.254E-02    0.97       1.0  T
   4   -100.7303415 -0.560160E-04  0.128E-02    0.94       1.0  T
   5   -100.7303562 -0.147444E-04  0.230E-03    0.95       5.1  T
   6   -100.7303565 -0.304056E-06  0.722E-04    0.95      16.3  T
   7   -100.7303565 -0.114475E-07  0.337E-04    0.95      35.0  T
     SCC iter.                  ...        0 min,  0.057 sec
     gradient                   ...        0 min,  0.069 sec
 * total energy  :   -99.3660980 Eh     change       -0.8716421E-03 Eh
   gradient norm :     0.0061646 Eh/α   predicted    -0.7543333E-03 ( -13.46%)
   displ. norm   :     0.0563821 α      lambda       -0.9785075E-04
   maximum displ.:     0.0266857 α      in ANC's #7, #2, #17, ...

........................................................................
.............................. CYCLE    5 ..............................
........................................................................

 iter      E             dE          RMSdq      gap      omega  full diag
   1   -100.7297492 -0.100730E+03  0.120E-02    0.95       0.0  T
   2   -100.7297495 -0.366783E-06  0.685E-03    0.95       1.7  T
   3   -100.7297460  0.353238E-05  0.569E-03    0.96       2.1  T
   4   -100.7297477 -0.171686E-05  0.447E-03    0.95       2.6  T
   5   -100.7297498 -0.206593E-05  0.599E-04    0.95      19.7  T
   6   -100.7297498 -0.225974E-07  0.190E-04    0.95      62.1  T
   7   -100.7297498 -0.746226E-09  0.861E-05    0.95     136.9  T
     SCC iter.                  ...        0 min,  0.058 sec
     gradient                   ...        0 min,  0.069 sec
 * total energy  :   -99.3661613 Eh     change       -0.6328962E-04 Eh
   gradient norm :     0.0010433 Eh/α   predicted    -0.4908783E-04 ( -22.44%)
   displ. norm   :     0.0917922 α      lambda       -0.3092738E-04
   maximum displ.:     0.0452889 α      in ANC's #7, #2, #4, ...

   *** GEOMETRY OPTIMIZATION CONVERGED AFTER 5 ITERATIONS ***

------------------------------------------------------------------------
 total energy gain   :        -0.0637787 Eh      -40.0218 kcal/mol
 total RMSD          :         0.0521436 a0        0.0276 Å
 total power (kW/mol):       -33.4902137 (step) -210.2935 (real)
------------------------------------------------------------------------

 ANCopt (total)                0 d,  0 h,  0 min,  0.796 sec
 optimizer setup                ...        0 min,  0.000 sec (  0.034%)
 model hessian                  ...        0 min,  0.054 sec (  6.739%)
 ANC generation                 ...        0 min,  0.006 sec (  0.803%)
 coordinate transformation      ...        0 min,  0.000 sec (  0.043%)
 single point calculation       ...        0 min,  0.728 sec ( 91.457%)
 optimization log               ...        0 min,  0.003 sec (  0.375%)
 hessian update                 ...        0 min,  0.000 sec (  0.037%)
 rational function              ...        0 min,  0.001 sec (  0.153%)

================
 final structure:
================
72
 xtb: 6.6.1 (8d0f1dd)
N           -2.98095011813324        3.42693335099667        2.73448170146004
C           -2.53891576663417        2.60409057439537        1.90361830491097
C           -3.26809730915245        2.21791732313455        0.64275690974744
C           -3.50625368841299        0.72037114485473        0.62535157722757
C           -3.79593954802659        0.08167357563820       -0.58035279757587
C           -4.04399834047103       -1.28139835514972       -0.63128441970493
O           -4.32884131439191       -1.98029958198564       -1.74841152847098
C           -4.46764811047933       -1.30120934535778       -2.97429061967979
C           -4.00888513269339       -2.04597139309741        0.56797936892165
O           -4.26964487718061       -3.35847930235913        0.42426942000070
C           -4.37174030846869       -4.16961800598184        1.57241118952561
C           -3.72713521860107       -1.39954706031712        1.76234974380248
C           -3.47881492203547       -0.03443397551259        1.78861570453119
C           -2.33037490686582        2.61633299164343       -0.55775039172113
C           -1.37534172472956        1.58443711581055       -0.99822461385795
C           -0.34486574339022        0.98225744904563       -0.12341616311830
N            0.45078624786063        0.00767579505408       -0.83727214843337
C            1.82413096773538       -0.11801589416555       -0.40126526778359
C            2.73193921441575       -0.65674349735558       -1.52091184397306
C            4.17288572390553       -0.43812046794425       -1.16271829718614
C            4.78101397832533        0.78635509864146       -1.41121046072829
C            6.10112015109455        1.01159727581714       -1.05970572812659
C            6.84854412145137        0.01417167795649       -0.44537968845078
O            8.13353230825687        0.11667711703966       -0.06662980800580
C            8.83821398548854        1.30946279386606       -0.32509622366145
C            6.23345809491540       -1.24322895913748       -0.17914332440070
O            7.02616609829310       -2.15074283500310        0.41806378203615
C            6.51797247707277       -3.43158251777809        0.70865921354285
C            4.90830494644649       -1.44241825449246       -0.54115161601523
C           -0.23324404220516       -1.25166368641151       -1.01108621559761
C           -4.63870631196207        2.93459074118636        0.48102800699540
C           -5.61028150411990        2.54455776576856        1.59321522209525
C           -4.51799277581550        4.45457523853293        0.41875949127278
H           -3.85494553470406        0.66181124204322       -1.48562438968712
H           -5.26315673091876       -0.55157509928945       -2.92979411952474
H           -4.73429450174955       -2.06531302682830       -3.70186105611903
H           -3.53056646861348       -0.82410171395292       -3.27929588416341
H           -5.14212929854149       -3.80013232143390        2.25532750542925
H           -4.65398438019944       -5.15579462125752        1.20889195163093
H           -3.41648417105517       -4.23852043029305        2.10192937854143
H           -3.70587954005798       -1.95155512385910        2.68777293008529
H           -3.28435985168322        0.44027327146398        2.73799295175794
H           -2.95659410389125        2.90147557891814       -1.40255464145113
H           -1.78812839641470        3.51629532672356       -0.23900133793647
H           -0.82141801409975        0.52135262309099        0.76530775710360
H           -1.32888249963469        1.32612366338884       -2.04267150069813
H           -1.56141728273824        2.11209784184303        2.00429064739847
H            0.31877671775252        1.77502046413257        0.25199398904344
H            1.91280555478596       -0.77102934384577        0.48236314294967
H            2.18788509454620        0.87443259504626       -0.12433354234358
H            2.49135627254236       -0.11931977314568       -2.43903010926533
H            2.54535347676619       -1.71852352225025       -1.67844568763680
H            4.22188498860987        1.57319271711156       -1.89403506800754
H            6.54563681769267        1.97045682223295       -1.27098019979935
H            8.40141150588365        2.15676890424394        0.21216187347512
H            8.86867766105846        1.53174945614386       -1.39576269418980
H            9.84966783464038        1.13546676981019        0.03702425995807
H            7.34003200604563       -3.97361963069519        1.17214210688467
H            5.67812147013329       -3.37970693563614        1.40845315996197
H            6.20585217155763       -3.95443059032577       -0.20040887149956
H            4.43564646272315       -2.39289825682240       -0.34969607996938
H            0.27193278637051       -1.84494208061229       -1.76926751072976
H           -1.25448615094137       -1.06539943156390       -1.33541554642066
H           -0.27040461850200       -1.83131735046528       -0.07692301466020
H           -5.05884780955898        2.58095881216474       -0.46865832841549
H           -5.23809583097791        2.89307828492544        2.55172984273281
H           -5.75002766769876        1.46715704913252        1.63655287666488
H           -6.57607111473073        3.00784152402809        1.41002585023108
H           -4.12643325507255        4.83536013632613        1.35700764305119
H           -3.87458197811402        4.78271607908001       -0.39311785061919
H           -5.50330959861488        4.88507057297477        0.25958156887983
H           -2.40442307706770        3.64341514258047        3.54133436036916

 Bond Distances (Angstroems)
 ---------------------------
N1-C2=1.2501         N1-H72=1.0150        C2-N1=1.2501         C2-C3=1.5069         C2-H47=1.0990        C3-C2=1.5069         
C3-C4=1.5165         C3-C14=1.5746        C3-C31=1.5551        C4-C3=1.5165         C4-C5=1.3948         C4-C13=1.3870        
C5-C4=1.3948         C5-C6=1.3864         C5-H34=1.0768        C6-C5=1.3864         C6-O7=1.3482         C6-C9=1.4227         
O7-C6=1.3482         O7-C8=1.4083         C8-O7=1.4083         C8-H35=1.0940        C8-H36=1.0883        C8-H37=1.0949        
C9-C6=1.4227         C9-O10=1.3459        C9-C12=1.3870        O10-C9=1.3459        O10-C11=1.4095       C11-O10=1.4095       
C11-H38=1.0938       C11-H39=1.0883       C11-H40=1.0944       C12-C9=1.3870        C12-C13=1.3878       C12-H41=1.0778       
C13-C4=1.3870        C13-C12=1.3878       C13-H42=1.0791       C14-C3=1.5746        C14-C15=1.4734       C14-H43=1.0896       
C14-H44=1.0980       C15-C14=1.4734       C15-C16=1.4798       C15-H46=1.0769       C16-C15=1.4798       C16-N17=1.4465       
C16-H45=1.1088       C16-H48=1.0999       N17-C16=1.4465       N17-C18=1.4464       N17-C30=1.4436       C18-N17=1.4464       
C18-C19=1.5388       C18-H49=1.1023       C18-H50=1.0927       C19-C18=1.5388       C19-C20=1.5008       C19-H51=1.0907       
C19-H52=1.0895       C20-C19=1.5008       C20-C21=1.3896       C20-C29=1.3913       C21-C20=1.3896       C21-C22=1.3845       
C21-H53=1.0793       C22-C21=1.3845       C22-C23=1.3896       C22-H54=1.0778       C23-C22=1.3896       C23-O24=1.3436       
C23-C26=1.4249       O24-C23=1.3436       O24-C25=1.4093       C25-O24=1.4093       C25-H55=1.0942       C25-H56=1.0939       
C25-H57=1.0883       C26-C23=1.4249       C26-O27=1.3449       C26-C29=1.3881       O27-C26=1.3449       O27-C28=1.4083       
C28-O27=1.4083       C28-H58=1.0883       C28-H59=1.0944       C28-H60=1.0942       C29-C20=1.3913       C29-C26=1.3881       
C29-H61=1.0786       C30-N17=1.4436       C30-H62=1.0872       C30-H63=1.0876       C30-H64=1.1000       C31-C3=1.5551        
C31-C32=1.5274       C31-C33=1.5260       C31-H65=1.0970       C32-C31=1.5274       C32-H66=1.0857       C32-H67=1.0873       
C32-H68=1.0867       C33-C31=1.5260       C33-H69=1.0856       C33-H70=1.0866       C33-H71=1.0870       H34-C5=1.0768        
H35-C8=1.0940        H36-C8=1.0883        H37-C8=1.0949        H38-C11=1.0938       H39-C11=1.0883       H40-C11=1.0944       
H41-C12=1.0778       H42-C13=1.0791       H43-C14=1.0896       H44-C14=1.0980       H45-C16=1.1088       H46-C15=1.0769       
H47-C2=1.0990        H48-C16=1.0999       H49-C18=1.1023       H50-C18=1.0927       H51-C19=1.0907       H52-C19=1.0895       
H53-C21=1.0793       H54-C22=1.0778       H55-C25=1.0942       H56-C25=1.0939       H57-C25=1.0883       H58-C28=1.0883       
H59-C28=1.0944       H60-C28=1.0942       H61-C29=1.0786       H62-C30=1.0872       H63-C30=1.0876       H64-C30=1.1000       
H65-C31=1.0970       H66-C32=1.0857       H67-C32=1.0873       H68-C32=1.0867       H69-C33=1.0856       H70-C33=1.0866       
H71-C33=1.0870       H72-N1=1.0150        
 C  H  Rav=1.0899 sigma=0.0075  Rmin=1.0768  Rmax=1.1088    38
 C  C  Rav=1.4515 sigma=0.0664  Rmin=1.3845  Rmax=1.5746    22
 N  H  Rav=1.0150 sigma=0.0000  Rmin=1.0150  Rmax=1.0150     1
 N  C  Rav=1.3967 sigma=0.0846  Rmin=1.2501  Rmax=1.4465     4
 O  C  Rav=1.3772 sigma=0.0316  Rmin=1.3436  Rmax=1.4095     8

 selected bond angles (degree)
 --------------------
H72-N1-C2=117.90               C3-C2-N1=123.62                H47-C2-N1=123.25               H47-C2-C3=113.10               
C4-C3-C2=109.80                C14-C3-C2=106.55               C14-C3-C4=109.55               C31-C3-C2=113.29               
C31-C3-C4=108.39               C31-C3-C14=109.21              C5-C4-C3=119.65                C13-C4-C3=121.65               
C13-C4-C5=118.68               C6-C5-C4=121.27                H34-C5-C4=119.43               H34-C5-C6=119.27               
O7-C6-C5=125.30                C9-C6-C5=119.54                C9-C6-O7=115.16                C8-O7-C6=119.48                
H35-C8-O7=111.51               H36-C8-O7=105.52               H36-C8-H35=109.28              H37-C8-O7=111.61               
H37-C8-H35=109.58              H37-C8-H36=109.23              O10-C9-C6=115.42               C12-C9-C6=118.71               
C12-C9-O10=125.86              C11-O10-C9=119.23              

 selected dihedral angles (degree)
 ---------------------------------
C3-C2-N1-H72=181.76           H47-C2-N1-H72=359.74          C4-C3-C2-N1=238.05            C4-C3-C2-H47= 59.88           
C14-C3-C2-N1=119.50           C14-C3-C2-H47=301.33          C31-C3-C2-N1=359.39           C31-C3-C2-H47=181.22          
C5-C4-C3-C2=198.90            C5-C4-C3-C14=315.60           C5-C4-C3-C31= 74.67           C13-C4-C3-C2= 20.63           
C13-C4-C3-C14=137.33          C13-C4-C3-C31=256.40          C6-C5-C4-C3=181.22            C6-C5-C4-C13=359.54           
H34-C5-C4-C3=359.52           H34-C5-C4-C13=177.84          O7-C6-C5-C4=180.13            O7-C6-C5-H34=  1.82           
C9-C6-C5-C4=  0.27            C9-C6-C5-H34=181.97           C8-O7-C6-C5=356.28            C8-O7-C6-C9=176.14            
H35-C8-O7-C6=300.89           H36-C8-O7-C6=182.35           H37-C8-O7-C6= 63.81           O10-C9-C6-C5=179.61           
O10-C9-C6-O7=359.74           C12-C9-C6-C5=  0.09           C12-C9-C6-O7=180.22           C11-O10-C9-C6=185.51          
C11-O10-C9-C12=  4.99         
           -------------------------------------------------
          |                Final Singlepoint                |
           -------------------------------------------------

          ...................................................
          :                      SETUP                      :
          :.................................................:
          :  # basis functions                 171          :
          :  # atomic orbitals                 171          :
          :  # shells                          105          :
          :  # electrons                       180          :
          :  max. iterations                   250          :
          :  Hamiltonian                  GFN2-xTB          :
          :  restarted?                      false          :
          :  GBSA solvation                  false          :
          :  PC potential                    false          :
          :  electronic temp.         5000.0000000     K    :
          :  accuracy                    1.0000000          :
          :  -> integral cutoff          0.2500000E+02      :
          :  -> integral neglect         0.1000000E-07      :
          :  -> SCF convergence          0.1000000E-05 Eh   :
          :  -> wf. convergence          0.1000000E-03 e    :
          :  Broyden damping             0.4000000          :
          ...................................................

 iter      E             dE          RMSdq      gap      omega  full diag
   1   -100.7297498 -0.100730E+03  0.312E-05    0.95       0.0  T
   2   -100.7297498  0.380282E-10  0.269E-05    0.95     438.3  T
   3   -100.7297498 -0.105587E-10  0.276E-05    0.95     427.5  T

   *** convergence criteria satisfied after 3 iterations ***

         #    Occupation            Energy/Eh            Energy/eV
      -------------------------------------------------------------
         1        2.0000           -0.8165473             -22.2194
       ...           ...                  ...                  ...
        84        1.9916           -0.5151048             -14.0167
        85        1.9715           -0.4955192             -13.4838
        86        1.9629           -0.4912838             -13.3685
        87        1.8949           -0.4742280             -12.9044
        88        1.8514           -0.4683795             -12.7453
        89        1.8091           -0.4640436             -12.6273
        90        1.7287           -0.4577601             -12.4563 (HOMO)
        91        0.8219           -0.4227333             -11.5032 (LUMO)
        92        0.0085           -0.3420079              -9.3065
        93        0.0022           -0.3206232              -8.7246
        94        0.0019           -0.3184449              -8.6653
        95        0.0015           -0.3146195              -8.5612
       ...           ...                  ...                  ...
       171                          0.5699834              15.5100
      -------------------------------------------------------------
                  HL-Gap            0.0350268 Eh            0.9531 eV
             Fermi-level           -0.4284358 Eh          -11.6583 eV

 SCC (total)                   0 d,  0 h,  0 min,  0.118 sec
 SCC setup                      ...        0 min,  0.001 sec (  0.741%)
 Dispersion                     ...        0 min,  0.002 sec (  1.370%)
 classical contributions        ...        0 min,  0.000 sec (  0.365%)
 integral evaluation            ...        0 min,  0.018 sec ( 15.511%)
 iterations                     ...        0 min,  0.027 sec ( 22.685%)
 molecular gradient             ...        0 min,  0.069 sec ( 58.843%)
 printout                       ...        0 min,  0.001 sec (  0.472%)

         :::::::::::::::::::::::::::::::::::::::::::::::::::::
         ::                     SUMMARY                     ::
         :::::::::::::::::::::::::::::::::::::::::::::::::::::
         :: total energy             -99.366161260722 Eh    ::
         :: gradient norm              0.001043544279 Eh/a0 ::
         :: HOMO-LUMO gap              0.953127241944 eV    ::
         ::.................................................::
         :: SCC energy              -100.729749812835 Eh    ::
         :: -> isotropic ES            0.103289892742 Eh    ::
         :: -> anisotropic ES          0.006292855672 Eh    ::
         :: -> anisotropic XC          0.045963551315 Eh    ::
         :: -> dispersion             -0.075004153316 Eh    ::
         :: repulsion energy           1.362263726504 Eh    ::
         :: add. restraining           0.000000000000 Eh    ::
         :: total charge               1.000000000000 e     ::
         :::::::::::::::::::::::::::::::::::::::::::::::::::::

           -------------------------------------------------
          |                Property Printout                |
           -------------------------------------------------

    * Orbital Energies and Occupations

         #    Occupation            Energy/Eh            Energy/eV
      -------------------------------------------------------------
         1        2.0000           -0.8165473             -22.2194
       ...           ...                  ...                  ...
        78        1.9971           -0.5317247             -14.4690
        79        1.9966           -0.5293918             -14.4055
        80        1.9960           -0.5266404             -14.3306
        81        1.9943           -0.5211098             -14.1801
        82        1.9938           -0.5197483             -14.1431
        83        1.9930           -0.5179705             -14.0947
        84        1.9916           -0.5151048             -14.0167
        85        1.9715           -0.4955192             -13.4838
        86        1.9629           -0.4912838             -13.3685
        87        1.8949           -0.4742280             -12.9044
        88        1.8514           -0.4683795             -12.7453
        89        1.8091           -0.4640436             -12.6273
        90        1.7287           -0.4577601             -12.4563 (HOMO)
        91        0.8219           -0.4227333             -11.5032 (LUMO)
        92        0.0085           -0.3420079              -9.3065
        93        0.0022           -0.3206232              -8.7246
        94        0.0019           -0.3184449              -8.6653
        95        0.0015           -0.3146195              -8.5612
        96        0.0014           -0.3131303              -8.5207
        97        0.0000           -0.1960873              -5.3358
        98        0.0000           -0.1904821              -5.1833
        99                         -0.1034487              -2.8150
       100                         -0.0712561              -1.9390
       101                         -0.0644049              -1.7525
       ...                                ...                  ...
       171                          0.5699834              15.5100
      -------------------------------------------------------------
                  HL-Gap            0.0350268 Eh            0.9531 eV
             Fermi-level           -0.4284358 Eh          -11.6583 eV

     #   Z          covCN         q      C6AA      α(0)
     1   7 N        1.774    -0.263    27.641     7.785
     2   6 C        2.824     0.101    25.757     8.316
     3   6 C        3.906     0.011    20.339     6.410
     4   6 C        2.975     0.006    27.886     8.662
     5   6 C        2.919    -0.078    29.950     8.974
     6   6 C        2.862     0.131    25.126     8.216
     7   8 O        1.706    -0.226    17.748     5.688
     8   6 C        3.644     0.026    20.470     6.503
     9   6 C        2.864     0.132    25.107     8.213
    10   8 O        1.706    -0.222    17.686     5.678
    11   6 C        3.645     0.025    20.493     6.506
    12   6 C        2.913    -0.069    29.716     8.939
    13   6 C        2.921    -0.046    29.148     8.854
    14   6 C        3.807    -0.062    21.681     6.629
    15   6 C        2.888    -0.046    29.133     8.849
    16   6 C        3.755     0.005    20.541     6.462
    17   7 N        2.729    -0.125    23.714     7.233
    18   6 C        3.753     0.004    20.571     6.468
    19   6 C        3.808    -0.072    21.878     6.658
    20   6 C        2.968     0.011    27.771     8.644
    21   6 C        2.922    -0.044    29.094     8.845
    22   6 C        2.912    -0.065    29.620     8.924
    23   6 C        2.864     0.136    25.035     8.202
    24   8 O        1.706    -0.214    17.549     5.656
    25   6 C        3.645     0.023    20.523     6.511
    26   6 C        2.862     0.136    25.024     8.200
    27   8 O        1.706    -0.216    17.587     5.662
    28   6 C        3.645     0.025    20.498     6.507
    29   6 C        2.919    -0.075    29.880     8.964
    30   6 C        3.707    -0.046    21.540     6.634
    31   6 C        3.853    -0.007    20.660     6.465
    32   6 C        3.756    -0.118    22.812     6.810
    33   6 C        3.755    -0.122    22.893     6.822
    34   1 H        0.926     0.057     2.240     2.340
    35   1 H        0.924     0.057     2.241     2.341
    36   1 H        0.925     0.084     1.942     2.179
    37   1 H        0.924     0.048     2.342     2.393
    38   1 H        0.924     0.058     2.220     2.330
    39   1 H        0.925     0.083     1.944     2.180
    40   1 H        0.924     0.053     2.279     2.361
    41   1 H        0.926     0.059     2.214     2.327
    42   1 H        0.926     0.048     2.348     2.396
    43   1 H        0.925     0.069     2.093     2.262
    44   1 H        0.923     0.076     2.017     2.221
    45   1 H        0.922     0.054     2.274     2.358
    46   1 H        0.926     0.065     2.136     2.285
    47   1 H        0.923     0.015     2.815     2.624
    48   1 H        0.923     0.070     2.088     2.260
    49   1 H        0.923     0.032     2.557     2.501
    50   1 H        0.924     0.048     2.348     2.396
    51   1 H        0.924     0.065     2.137     2.286
    52   1 H        0.925     0.054     2.267     2.354
    53   1 H        0.926     0.054     2.268     2.355
    54   1 H        0.926     0.061     2.183     2.310
    55   1 H        0.924     0.058     2.221     2.330
    56   1 H        0.924     0.060     2.203     2.321
    57   1 H        0.925     0.085     1.926     2.170
    58   1 H        0.925     0.085     1.933     2.174
    59   1 H        0.924     0.054     2.267     2.355
    60   1 H        0.924     0.057     2.229     2.335
    61   1 H        0.926     0.055     2.257     2.350
    62   1 H        0.925     0.064     2.157     2.297
    63   1 H        0.925     0.053     2.284     2.363
    64   1 H        0.923     0.032     2.555     2.500
    65   1 H        0.924     0.040     2.452     2.449
    66   1 H        0.925     0.069     2.099     2.266
    67   1 H        0.925     0.037     2.491     2.468
    68   1 H        0.925     0.055     2.255     2.348
    69   1 H        0.925     0.071     2.077     2.254
    70   1 H        0.925     0.038     2.471     2.458
    71   1 H        0.925     0.057     2.240     2.340
    72   1 H        0.860     0.163     1.315     1.796

 Mol. C6AA /au·bohr⁶  :      47476.498985
 Mol. C8AA /au·bohr⁸  :    1081987.649420
 Mol. α(0) /au        :        334.526296


Wiberg/Mayer (AO) data.
largest (>0.10) Wiberg bond orders for each atom

 ---------------------------------------------------------------------------
     #   Z sym  total        # sym  WBO       # sym  WBO       # sym  WBO
 ---------------------------------------------------------------------------
     1   7 N    3.010 --     2 C    1.956    72 H    0.939
     2   6 C    3.941 --     1 N    1.956     3 C    0.992    47 H    0.927
     3   6 C    3.931 --     2 C    0.992     4 C    0.977    31 C    0.945
                            14 C    0.906
     4   6 C    3.933 --    13 C    1.405     5 C    1.369     3 C    0.977
     5   6 C    3.956 --     6 C    1.391     4 C    1.369    34 H    0.957
     6   6 C    3.887 --     5 C    1.391     9 C    1.215     7 O    1.104
     7   8 O    2.249 --     6 C    1.104     8 C    0.977
     8   6 C    3.929 --     7 O    0.977    36 H    0.976    37 H    0.973
                            35 H    0.972
     9   6 C    3.887 --    12 C    1.384     6 C    1.215    10 O    1.110
    10   8 O    2.249 --     9 C    1.110    11 C    0.975
    11   6 C    3.927 --    39 H    0.976    10 O    0.975    38 H    0.972
                            40 H    0.972
    12   6 C    3.951 --    13 C    1.410     9 C    1.384    41 H    0.963
    13   6 C    3.942 --    12 C    1.410     4 C    1.405    42 H    0.963
    14   6 C    3.979 --    15 C    1.094    43 H    0.965    44 H    0.922
                             3 C    0.906
    15   6 C    3.219 --    14 C    1.094    16 C    1.069    46 H    0.968
    16   6 C    3.968 --    15 C    1.069    17 N    1.004    48 H    0.923
                            45 H    0.913
    17   7 N    3.099 --    30 C    1.015    18 C    1.006    16 C    1.004
    18   6 C    3.965 --    17 N    1.006    19 C    0.975    50 H    0.969
                            49 H    0.957
    19   6 C    3.981 --    20 C    1.014    18 C    0.975    52 H    0.970
                            51 H    0.967
    20   6 C    3.922 --    29 C    1.390    21 C    1.385    19 C    1.014
    21   6 C    3.924 --    22 C    1.429    20 C    1.385    53 H    0.967
    22   6 C    3.948 --    21 C    1.429    23 C    1.370    54 H    0.962
    23   6 C    3.868 --    22 C    1.370    26 C    1.208    24 O    1.119
    24   8 O    2.246 --    23 C    1.119    25 C    0.975
    25   6 C    3.924 --    57 H    0.976    24 O    0.975    56 H    0.971
                            55 H    0.971
    26   6 C    3.875 --    29 C    1.383    23 C    1.208    27 O    1.114
    27   8 O    2.249 --    26 C    1.114    28 C    0.976
    28   6 C    3.926 --    58 H    0.976    27 O    0.976    59 H    0.972
                            60 H    0.971
    29   6 C    3.949 --    20 C    1.390    26 C    1.383    61 H    0.961
    30   6 C    3.968 --    17 N    1.015    63 H    0.977    62 H    0.976
                            64 H    0.965
    31   6 C    3.968 --    33 C    1.008    32 C    1.004    65 H    0.958
                             3 C    0.945
    32   6 C    3.971 --    31 C    1.004    67 H    0.981    68 H    0.980
                            66 H    0.972
    33   6 C    3.972 --    31 C    1.008    70 H    0.980    71 H    0.978
                            69 H    0.970
    34   1 H    0.995 --     5 C    0.957
    35   1 H    0.992 --     8 C    0.972
    36   1 H    0.992 --     8 C    0.976
    37   1 H    0.992 --     8 C    0.973
    38   1 H    0.991 --    11 C    0.972
    39   1 H    0.992 --    11 C    0.976
    40   1 H    0.991 --    11 C    0.972
    41   1 H    0.994 --    12 C    0.963
    42   1 H    0.997 --    13 C    0.963
    43   1 H    0.993 --    14 C    0.965
    44   1 H    0.949 --    14 C    0.922
    45   1 H    0.950 --    16 C    0.913
    46   1 H    0.994 --    15 C    0.968
    47   1 H    0.977 --     2 C    0.927
    48   1 H    0.954 --    16 C    0.923
    49   1 H    0.980 --    18 C    0.957
    50   1 H    0.997 --    18 C    0.969
    51   1 H    0.992 --    19 C    0.967
    52   1 H    0.995 --    19 C    0.970
    53   1 H    0.996 --    21 C    0.967
    54   1 H    0.994 --    22 C    0.962
    55   1 H    0.988 --    25 C    0.971
    56   1 H    0.989 --    25 C    0.971
    57   1 H    0.992 --    25 C    0.976
    58   1 H    0.992 --    28 C    0.976
    59   1 H    0.990 --    28 C    0.972
    60   1 H    0.990 --    28 C    0.971
    61   1 H    0.995 --    29 C    0.961
    62   1 H    0.992 --    30 C    0.976
    63   1 H    0.996 --    30 C    0.977
    64   1 H    0.980 --    30 C    0.965
    65   1 H    0.989 --    31 C    0.958
    66   1 H    0.989 --    32 C    0.972
    67   1 H    0.996 --    32 C    0.981
    68   1 H    0.992 --    32 C    0.980
    69   1 H    0.989 --    33 C    0.970
    70   1 H    0.995 --    33 C    0.980
    71   1 H    0.992 --    33 C    0.978
    72   1 H    0.966 --     1 N    0.939
 ---------------------------------------------------------------------------

Topologies differ in total number of bonds
Writing topology from bond orders to xtbtopo.mol

molecular dipole:
                 x           y           z       tot (Debye)
 q only:        0.639       0.261      -0.233
   full:        0.923       0.127       0.064       2.373
molecular quadrupole (traceless):
                xx          xy          yy          xz          yz          zz
 q only:       58.336      -2.040     -18.052      -5.763      -7.093     -40.284
  q+dip:       50.853       3.277     -17.541      -3.094      -8.990     -33.311
   full:       51.743       3.779     -17.998      -5.055      -9.178     -33.745

           -------------------------------------------------
          |                Geometry Summary                 |
           -------------------------------------------------

      molecular mass/u    :      455.6105846
   center of mass at/Å    :        0.0328162       0.0040008      -0.0256932
  moments of inertia/u·Å² :        0.2653406E+04   0.1069629E+05   0.1201888E+05
rotational constants/cm⁻¹ :        0.6353205E-02   0.1576026E-02   0.1402596E-02

 * 67 selected distances

     #   Z          #   Z                                           value/Å
     1   7 N        2   6 C                                       1.2501195
     4   6 C        5   6 C                                       1.3948390
     5   6 C        6   6 C                                       1.3863956
     6   6 C        7   8 O                                       1.3481735
     7   8 O        8   6 C                                       1.4082652
     6   6 C        9   6 C                                       1.4226872
     9   6 C       10   8 O                                       1.3458549
    10   8 O       11   6 C                                       1.4094678
     9   6 C       12   6 C                                       1.3869998
     4   6 C       13   6 C                                       1.3869634
    12   6 C       13   6 C                                       1.3877633
    14   6 C       15   6 C                                       1.4734027
    15   6 C       16   6 C                                       1.4797944
    16   6 C       17   7 N                                       1.4465346
    17   7 N       18   6 C                                       1.4463667
    18   6 C       19   6 C                                       1.5388152 (max)
    20   6 C       21   6 C                                       1.3895716
    21   6 C       22   6 C                                       1.3845470
    22   6 C       23   6 C                                       1.3895673
    23   6 C       24   8 O                                       1.3435601
    24   8 O       25   6 C                                       1.4092974
    23   6 C       26   6 C                                       1.4248752
    26   6 C       27   8 O                                       1.3448509
    27   8 O       28   6 C                                       1.4082816
    20   6 C       29   6 C                                       1.3913306
    26   6 C       29   6 C                                       1.3880769
    17   7 N       30   6 C                                       1.4436222
    31   6 C       32   6 C                                       1.5274308
    31   6 C       33   6 C                                       1.5260414
     5   6 C       34   1 H                                       1.0768279 (min)
     8   6 C       35   1 H                                       1.0939678
     8   6 C       36   1 H                                       1.0882618
     8   6 C       37   1 H                                       1.0948891
    11   6 C       38   1 H                                       1.0937979
    11   6 C       39   1 H                                       1.0882796
    11   6 C       40   1 H                                       1.0943727
    12   6 C       41   1 H                                       1.0777630
    13   6 C       42   1 H                                       1.0791094
    14   6 C       43   1 H                                       1.0895647
    14   6 C       44   1 H                                       1.0979821
    16   6 C       45   1 H                                       1.1087677
    15   6 C       46   1 H                                       1.0769187
     2   6 C       47   1 H                                       1.0989519
    16   6 C       48   1 H                                       1.0999216
    18   6 C       49   1 H                                       1.1023108
    18   6 C       50   1 H                                       1.0926859
    19   6 C       51   1 H                                       1.0907088
    19   6 C       52   1 H                                       1.0894991
    21   6 C       53   1 H                                       1.0792861
    22   6 C       54   1 H                                       1.0777958
    25   6 C       55   1 H                                       1.0942443
    25   6 C       56   1 H                                       1.0939224
    25   6 C       57   1 H                                       1.0883221
    28   6 C       58   1 H                                       1.0883027
    28   6 C       59   1 H                                       1.0944188
    28   6 C       60   1 H                                       1.0941637
    29   6 C       61   1 H                                       1.0786444
    30   6 C       62   1 H                                       1.0872083
    30   6 C       63   1 H                                       1.0875751
    30   6 C       64   1 H                                       1.1000184
    31   6 C       65   1 H                                       1.0970318
    32   6 C       66   1 H                                       1.0856976
    32   6 C       67   1 H                                       1.0872901
    32   6 C       68   1 H                                       1.0867106
    33   6 C       69   1 H                                       1.0856453
    33   6 C       70   1 H                                       1.0866457
    33   6 C       71   1 H                                       1.0869744

 * 4 distinct bonds (by element types)

   Z      Z             #   av. dist./Å        max./Å        min./Å
   1 H    6 C          38     1.0898547     1.1087677     1.0768279
   6 C    6 C          17     1.4281824     1.5388152     1.3845470
   6 C    7 N           4     1.3966607     1.4465346     1.2501195
   6 C    8 O           8     1.3772189     1.4094678     1.3435601


optimized geometry written to: xtbopt.xyz


           -------------------------------------------------
          | TOTAL ENERGY              -99.366161260722 Eh   |
          | GRADIENT NORM               0.001043544279 Eh/α |
          | HOMO-LUMO GAP               0.953127241944 eV   |
           -------------------------------------------------

------------------------------------------------------------------------
 * finished run on 2024/04/06 at 11:16:40.316     
------------------------------------------------------------------------
 total:
 * wall-time:     0 d,  0 h,  0 min,  1.090 sec
 *  cpu-time:     0 d,  0 h,  0 min,  1.057 sec
 * ratio c/w:     0.969 speedup
 SCF:
 * wall-time:     0 d,  0 h,  0 min,  0.121 sec
 *  cpu-time:     0 d,  0 h,  0 min,  0.120 sec
 * ratio c/w:     0.991 speedup
 ANC optimizer:
 * wall-time:     0 d,  0 h,  0 min,  0.922 sec
 *  cpu-time:     0 d,  0 h,  0 min,  0.912 sec
 * ratio c/w:     0.990 speedup

