72
 energy: 0.000000000000 xtb: 6.6.1 (8d0f1dd)
N           -1.47310921155849        2.74401293103706        2.22063921685122
C           -1.55658879776851        2.16490285539332        1.13274273951491
C           -2.74549199786261        2.05621232186130        0.23826248438941
C           -3.31377553111525        0.64333411542669        0.32332512650568
C           -4.30230156009016        0.24487110156316       -0.58026161703006
C           -4.85238763031941       -1.02286490450319       -0.53363588718165
O           -5.81419972815119       -1.48606034185536       -1.36157882725342
C           -6.39655633239252       -0.60827000183299       -2.29568474302620
C           -4.39972501531283       -1.94646102182611        0.44396929121966
O           -4.98748311285188       -3.16145997157803        0.41085992006324
C           -4.66362127904578       -4.10093827755394        1.40909127743729
C           -3.42072513477031       -1.54561384810496        1.33436546260297
C           -2.88302799614223       -0.26315800396994        1.27400150770375
C           -2.19303798107274        2.30467000305896       -1.18742977106749
C           -1.26651538239283        1.17243369445008       -1.65249429687285
C            0.01082524939134        1.09745454476277       -0.89354803499847
N            0.61779393476578       -0.02034948052406       -0.57705522512502
C            2.00145210352228       -0.02376006389122       -0.15611399603240
C            2.92554934655222       -0.53865282675074       -1.27700088804721
C            4.35756843073516       -0.43050757231754       -0.83075544324989
C            5.07346135469827        0.73206409086248       -1.03980965825901
C            6.38627986649936        0.84224441421807       -0.60344822702769
C            7.00047264773336       -0.20824756335880        0.05722314418200
O            8.26703657141718       -0.21011313101264        0.52410943644933
C            9.06912227848686        0.92943601033931        0.31863058007678
C            6.27039964270142       -1.40439753960823        0.28033466008274
O            6.94829939911432       -2.38012925705718        0.92751999079483
C            6.31537317745639       -3.61583200086742        1.15217711710877
C            4.96302794628964       -1.49347471867959       -0.16064430359178
C           -0.05511211367372       -1.29906247805359       -0.62085686319744
C           -3.86758037025447        3.07992600430699        0.58498060215443
C           -4.49286159663096        2.77383493050346        1.94313289484366
C           -3.39165179876499        4.52917666589254        0.54797523472093
H           -4.66030026466202        0.94509067363451       -1.31640568823548
H           -6.85037928558380        0.25803162192116       -1.80468845313260
H           -7.17287442604349       -1.18600110843259       -2.79318157561361
H           -5.66836817451085       -0.26952966318766       -3.04040255244073
H           -4.88416720672258       -3.71589460520039        2.40913542187496
H           -5.29223570620378       -4.96637458756866        1.20969236903657
H           -3.61139813139015       -4.39919835331056        1.35529357841967
H           -3.07077796610445       -2.21868765711333        2.10002662693138
H           -2.14562754426994        0.02067850696302        2.01001344383370
H           -3.02188875377605        2.38238012313952       -1.88813545054866
H           -1.65198530896729        3.25146700677685       -1.20556284570283
H           -1.81103374245520        0.23006524641044       -1.62116301628650
H           -0.99335688527853        1.37490212198123       -2.69443256973690
H           -0.67628064361333        1.65183887049447        0.61785727145403
H            0.63525841192517        1.98466369793744       -0.92314021190751
H            2.11132552493482       -0.65949692842762        0.72532613231274
H            2.30680473056284        0.98978251704176        0.11078972794250
H            2.76694198818247        0.06750735147374       -2.17075252200790
H            2.67954581369920       -1.57455627803457       -1.51167743520200
H            4.62169998552446        1.56295612048703       -1.56123579000624
H            6.92357674630170        1.75715815945204       -0.79119596719031
H            8.65159112996149        1.81001823324363        0.81701555159939
H            9.20136171144928        1.14042857828877       -0.74698991949293
H           10.03428838009630        0.69003240176163        0.76064937965836
H            7.05567174969094       -4.23621171795340        1.65347565939075
H            5.43848001056755       -3.50813558175093        1.79970565785717
H            6.02060041905269       -4.09420497120334        0.21253282636366
H            4.40102758497114       -2.40127266373392       -0.00490198249042
H           -0.22071299714579       -1.61775583601871       -1.65116008982042
H           -1.01972258008625       -1.24102717432227       -0.10935206830928
H            0.55899954147532       -2.04486085926761       -0.12333730421426
H           -4.63991875734388        2.95501092798550       -0.18098088071825
H           -3.76095216473977        2.90314704960906        2.73380821053058
H           -4.87457614030224        1.75695641518947        1.97884603101694
H           -5.31925552549014        3.45579210326349        2.12325564252114
H           -2.60025590131176        4.69225046143352        1.27368918226171
H           -3.03987406413880        4.81897652321898       -0.43870975059559
H           -4.22191740670577        5.18069648090034        0.80616693961239
H           -0.59832433787845        2.77744694953323        2.72958984441332
72
 energy: -5.858253999761 xtb: 6.6.1 (8d0f1dd)
N           -1.49679956830349        2.78279892389676        2.23948099036054
C           -1.55123731200856        2.14474975508898        1.15844334876926
C           -2.74215643751917        2.05494995314326        0.24753459997723
C           -3.31811749196048        0.64755274561997        0.32837389975196
C           -4.30430883367739        0.24539627070847       -0.57483360117679
C           -4.85488911482353       -1.02080644618982       -0.52701359742299
O           -5.82371300656773       -1.48912918386849       -1.36379073455320
C           -6.39090082774457       -0.61001373018647       -2.30049394565671
C           -4.41350608706967       -1.93831820989235        0.45205220648351
O           -5.01263146782312       -3.16231131503317        0.42054418233606
C           -4.69124119936703       -4.09140061730717        1.42312748587867
C           -3.43930102270434       -1.53904802504778        1.34651128099643
C           -2.89801025326640       -0.25947493606754        1.28369895620511
C           -2.18647922065182        2.28957998779315       -1.18222959040746
C           -1.26087238220197        1.16604735092039       -1.67918190631536
C            0.01022153913617        1.10041543585947       -0.91428170931300
N            0.63027948016694       -0.07757505780699       -0.55659381707912
C            1.99923577007396       -0.07061193719272       -0.15393552645656
C            2.95058542014094       -0.57493339611955       -1.26364948424043
C            4.37271356966556       -0.38312530557323       -0.83689942334725
C            5.08761115607126        0.78759139872509       -1.01646863575861
C            6.40268986801370        0.88365223799256       -0.57731834551038
C            7.01438715541860       -0.18101961673951        0.05946788757599
O            8.29554613112425       -0.20690900658480        0.52349929313818
C            9.09800579234995        0.92760071141843        0.33303308535109
C            6.28363861127817       -1.36970141339627        0.26689077230682
O            6.95952157684543       -2.36991955424860        0.89380741188871
C            6.29741197433386       -3.59097622738891        1.09888910297678
C            4.98193297529645       -1.44674001832467       -0.17517706166291
C           -0.06291111596814       -1.33037651930957       -0.61640104642504
C           -3.86495704731139        3.07619568350916        0.57492603593589
C           -4.49299635906710        2.78323592138390        1.93668911055239
C           -3.38159498516129        4.52468786568951        0.53661236847705
H           -4.64995134847264        0.94148657485078       -1.32119635394590
H           -6.84140591376386        0.26237403582281       -1.81510565067405
H           -7.16937685746757       -1.18370321856146       -2.80148370622297
H           -5.65699916408466       -0.27527255560134       -3.04189346574259
H           -4.91263324720704       -3.70120702981111        2.42229583026840
H           -5.32059328639497       -4.95843851362857        1.22781834076674
H           -3.63869689066665       -4.39150711117427        1.37647541553386
H           -3.09404753889550       -2.21297000780860        2.11470353894585
H           -2.15873208198814        0.02534858898311        2.01606690057641
H           -3.01701141761458        2.38477978688804       -1.88044363098653
H           -1.63476467936795        3.23068724371260       -1.19740122247076
H           -1.79963669532660        0.22006987455899       -1.63352984091204
H           -1.02252437262204        1.37251202976177       -2.73127868708586
H           -0.68732507610740        1.63689842614542        0.66751878664827
H            0.65706463286094        1.96314701212150       -0.97019358376814
H            2.11815895232130       -0.69942649462240        0.73666786610144
H            2.28934013970840        0.94732861583849        0.10880984438667
H            2.74222593242093       -0.00199029546761       -2.16911609968042
H            2.72713309153536       -1.62639736431522       -1.46185344300028
H            4.63965348956931        1.63261147526408       -1.51603613175190
H            6.94823765481354        1.79833103118168       -0.74844262171525
H            8.68920070886764        1.80346965998096        0.84753381618031
H            9.23233684078483        1.15801713600834       -0.72892329869349
H           10.06274514710718        0.67481025096123        0.76800311730933
H            7.02512803256548       -4.23505835023925        1.58712507444689
H            5.42157417097194       -3.47911982122406        1.74837890275979
H            5.99227538112280       -4.05016748557753        0.15318856669859
H            4.40620295322148       -2.34489170811207       -0.03178205189799
H           -0.23763254841666       -1.65031979585628       -1.65009693372755
H           -1.02954840138440       -1.26373962189556       -0.10622778756490
H            0.54362812670368       -2.08162925457811       -0.11683343765704
H           -4.64015594512727        2.95761835296231       -0.19251049050087
H           -3.75312243723184        2.90679870956624        2.72144622568991
H           -4.87526463038050        1.76605611859388        1.97512666906696
H           -5.31617011746903        3.47127973992201        2.11699231345122
H           -2.58919581837580        4.67722317374101        1.26315622686552
H           -3.02262514555667        4.80504856327878       -0.44984834586468
H           -4.20726643486486        5.18602336147231        0.78999834723432
H           -0.60551855836582        2.76914940183616        2.73239257304217
72
 energy: -4.802130547122 xtb: 6.6.1 (8d0f1dd)
N           -1.50190490499327        2.79578950461238        2.24072750968451
C           -1.55309108303312        2.13556872251828        1.17191491337262
C           -2.73654141243761        2.04813645194604        0.25054716828260
C           -3.32153181837791        0.64596094854457        0.33265407053482
C           -4.30565403353873        0.24394661864697       -0.57251488127988
C           -4.86134865412481       -1.02006662967199       -0.52310831986076
O           -5.82852127412322       -1.48882775580265       -1.36299380369740
C           -6.38538662004542       -0.61035079820638       -2.30603024932862
C           -4.42891520070256       -1.93510235140926        0.46147819080259
O           -5.03368398387864       -3.15739097623509        0.43121885340503
C           -4.71940839151271       -4.08307076243468        1.43877120868404
C           -3.45641773786449       -1.53610520098793        1.35822295943634
C           -2.90926137348631       -0.25922806371946        1.29249620746026
C           -2.17540651178586        2.27607344392028       -1.17899286260385
C           -1.25923531658726        1.14783766134508       -1.68939065722077
C            0.01514378459888        1.06829720369737       -0.93080822812671
N            0.62519395613467       -0.11208693703204       -0.55149713004417
C            1.99431252117385       -0.11044165364234       -0.14857604217157
C            2.96599701304791       -0.60678788208476       -1.24676462238704
C            4.38292606081508       -0.33151539809099       -0.83258377680352
C            5.09743456454753        0.84420022956190       -0.98841809717394
C            6.41720634663736        0.92461770518699       -0.55051004328284
C            7.03190997739619       -0.15311130584913        0.06161900956511
O            8.31595236408582       -0.20157284887759        0.51748061238566
C            9.12732941343449        0.92778298525182        0.34580012466984
C            6.29821868516604       -1.33925152515185        0.25357273039108
O            6.96641753706241       -2.35764231071344        0.85569870261188
C            6.27942765057150       -3.56812180201428        1.04448256021678
C            4.99875689959871       -1.39922816717040       -0.18648480764861
C           -0.07723207196580       -1.35922180720758       -0.61250491818592
C           -3.85797030608092        3.07453674694756        0.56648103969052
C           -4.48999064489642        2.79086265828344        1.92886060394656
C           -3.36823482326910        4.52042455482632        0.52419062381599
H           -4.64191347100776        0.93761954674793       -1.32533684351700
H           -6.83299130785238        0.26655634588895       -1.82605778018065
H           -7.16453773057217       -1.18125872159403       -2.80929956995892
H           -5.64519662722808       -0.28177264679864       -3.04396847677917
H           -4.94297102601713       -3.68760624490949        2.43543540115128
H           -5.35033354967547       -4.94946896250056        1.24528765053212
H           -3.66745352267697       -4.38579233067486        1.39788474007003
H           -3.11767191176633       -2.20841984938337        2.13071327302697
H           -2.17169138398816        0.02634298445599        2.02594563011489
H           -3.00552897915619        2.38540240031704       -1.87490020512981
H           -1.61549616468980        3.21231999854904       -1.19217478652387
H           -1.79905279469942        0.20287169285888       -1.63879922123269
H           -1.03899986794303        1.36134507291521       -2.74618018474232
H           -0.69062914054715        1.61737128036486        0.69747211242164
H            0.66833529722219        1.93054881882207       -0.99348254865012
H            2.11614028514322       -0.73650173700046        0.74454632924092
H            2.27435693528938        0.90828336571101        0.11235361653215
H            2.71971163459885       -0.07302333572711       -2.16927101045543
H            2.78275442350039       -1.67274204798700       -1.41236004181970
H            4.65663589852858        1.70369082704598       -1.46768664873740
H            6.96912006804807        1.83906168229304       -0.70507207524042
H            8.72748374995350        1.79693282893423        0.87776072989950
H            9.26345995141527        1.17643721392917       -0.71144490860890
H           10.09004479532595        0.65873467985943        0.77383097052398
H            6.99406481088407       -4.23487977062083        1.51927853999803
H            5.40598160011760       -3.45069862621947        1.69700371148272
H            5.96501006531697       -4.00685373350240        0.09308452865051
H            4.41296800102070       -2.28979420671516       -0.05811184127549
H           -0.25443387872324       -1.67821327840675       -1.64640010631240
H           -1.04457594770492       -1.28480290273523       -0.10386194985912
H            0.52427498854873       -2.11291413651637       -0.11118441747563
H           -4.63151767310566        2.95679719171240       -0.20320767434054
H           -3.74819777376289        2.91167700313259        2.71247766380062
H           -4.87661170045109        1.77548778431316        1.97159026816431
H           -5.30923143980899        3.48453274094360        2.10707457029576
H           -2.57738362906873        4.66774798678722        1.25312595994743
H           -3.00468622641986        4.79392714919823       -0.46195419253464
H           -4.19019624633699        5.18859304112113        0.77281743518351
H           -0.61300275974034        2.76358824052541        2.73438048589336
72
 energy: -2.405086167026 xtb: 6.6.1 (8d0f1dd)
N           -1.50416558206659        2.80811276179207        2.24094544661583
C           -1.55396634909508        2.12563523439874        1.18508327373631
C           -2.73046250090154        2.04097719032435        0.25355418432540
C           -3.32455555277895        0.64389304183138        0.33707253423506
C           -4.30610834250461        0.24191888730507       -0.57063683575824
C           -4.86761483485719       -1.01942914296243       -0.51933952282054
O           -5.83334286561314       -1.48827393473928       -1.36224943927641
C           -6.37976447600948       -0.61079357690527       -2.31188236195451
C           -4.44425716279196       -1.93191064739506        0.47087485315090
O           -5.05465849376688       -3.15233310485647        0.44193814210072
C           -4.74740317368956       -4.07451173208048        1.45441553655635
C           -3.47354995551841       -1.53349134319853        1.37008514128776
C           -2.92047127956262       -0.25938774838215        1.30159316589826
C           -2.16395757217785        2.26232480283418       -1.17560106489457
C           -1.25884058952839        1.12740038306031       -1.69672325301667
C            0.01812803660591        1.03519293413926       -0.94395327322251
N            0.61961545263857       -0.14733216815866       -0.54700321890225
C            1.98799378791597       -0.14988737930105       -0.14083020269723
C            2.97950684423376       -0.63569501030756       -1.22729653664583
C            4.39056012886195       -0.27862041124741       -0.82707560704471
C            5.10684160802488        0.90097979550759       -0.95958498131136
C            6.43146722311736        0.96515326735367       -0.52362819877771
C            7.04911946056347       -0.12538372949855        0.06361728103173
O            8.33573076883135       -0.19598573838725        0.51102569858866
C            9.15583222127083        0.92787507801313        0.35807580097978
C            6.31248745121738       -1.30885955180852        0.23951644054004
O            6.97207241401648       -2.34557954907882        0.81665536207026
C            6.26170494938017       -3.54567687449665        0.99002817431881
C            5.01497314774658       -1.35069213775764       -0.19797449352098
C           -0.09220706520003       -1.38818293442856       -0.60838033134230
C           -3.85019320041143        3.07278534075713        0.55842545792411
C           -4.48686977137223        2.79851965778585        1.92097808386797
C           -3.35484145167999        4.51640110623453        0.51160674227335
H           -4.63340833929799        0.93357258715323       -1.32943765165103
H           -6.82485714810076        0.27055716034338       -1.83767261931739
H           -7.15937330504530       -1.17924306286471       -2.81734166112189
H           -5.63348150812309       -0.28852796886139       -3.04651656976983
H           -4.97332721279239       -3.67390817823193        2.44853877361762
H           -5.37983087433238       -4.94024473924075        1.26262650366278
H           -3.69606360221391       -4.37986763613830        1.41935788090462
H           -3.14120629328669       -2.20417900415377        2.14678871460540
H           -2.18470468749631        0.02682477987056        2.03632124549828
H           -2.99284180082583        2.38467079411524       -1.87025048140352
H           -1.59558877193907        3.19372012478725       -1.18673042603492
H           -1.80085460688633        0.18467190464451       -1.64191504920680
H           -1.05626778196090        1.34540516597536       -2.75823262420380
H           -0.69349312214974        1.59665626785815        0.72586284678382
H            0.68015954996128        1.89497354217732       -1.01575083116542
H            2.11163536359419       -0.77503223764539        0.75331135253261
H            2.25822431137784        0.86891317734939        0.12156174528641
H            2.69741244474949       -0.14495571461450       -2.16814630984418
H            2.83873337100345       -1.71351589541388       -1.36168653912465
H            4.67511049540122        1.77521786546541       -1.41892101378651
H            6.99000857122941        1.87903823010726       -0.66164017536152
H            8.76471181709221        1.79000215913073        0.90720580910958
H            9.29327709660004        1.19443174254165       -0.69432838686670
H           10.11645611616765        0.64269545400517        0.77885433575135
H            6.96329406149328       -4.23420226211121        1.45149987412117
H            5.39083142742440       -3.42323568760392        1.64584771623850
H            5.93860143436899       -3.96434607915051        0.03345256787735
H            4.42089968522010       -2.23444604886964       -0.08531277039530
H           -0.27124347747087       -1.70681111353749       -1.64230161076859
H           -1.06002966421847       -1.30538350232064       -0.10137047398470
H            0.50405181538962       -2.14372098351001       -0.10468761612478
H           -4.62206584135001        2.95464696232315       -0.21319413675116
H           -3.74402525318424        2.91753927147150        2.70399158011594
H           -4.87802690792708        1.78500555498137        1.96803033223754
H           -5.30253727967765        3.49746232438036        2.09604599054413
H           -2.56550572318293        4.65963209632618        1.24265673504894
H           -2.98710063033327        4.78331957262204       -0.47431859230676
H           -4.17365165568298        5.19055813391620        0.75543274179762
H           -0.61584169873857        2.75655889575159        2.73286001486544
72
 energy: 1.346883401898 xtb: 6.6.1 (8d0f1dd)
N           -1.50282108410356        2.81938628291967        2.24290323450608
C           -1.55422999059428        2.11546636450950        1.19979227045677
C           -2.72414474469118        2.03377201741740        0.25691468627540
C           -3.32741674245987        0.64138540203194        0.34149098340754
C           -4.30598434828090        0.23947039236175       -0.56938243346604
C           -4.87399426888418       -1.01885447273579       -0.51574499423556
O           -5.83843603840140       -1.48752834401538       -1.36151140203883
C           -6.37431823083030       -0.61132491453008       -2.31791901515659
C           -4.45978537001797       -1.92875014399847        0.48019554292003
O           -5.07584871656419       -3.14713002832161        0.45272162079280
C           -4.77551751356342       -4.06601044510246        1.46988985580564
C           -3.49087046415431       -1.53105738692069        1.38192242647625
C           -2.93178649566245       -0.25982810793754        1.31072772529702
C           -2.15266223445212        2.24845414576370       -1.17228138635079
C           -1.25904010753729        1.10642399111773       -1.70273195475843
C            0.01941310978692        1.00222273162511       -0.95416775448538
N            0.61257159128837       -0.18299074098611       -0.54302909676240
C            1.97974884594491       -0.18944749999587       -0.13170812193970
C            2.98801242584432       -0.66446189565912       -1.20479279241794
C            4.39485986745718       -0.22601824385501       -0.82022154902003
C            5.11560682069364        0.95703024658033       -0.92957295221520
C            6.44549368694288        1.00549708539337       -0.49630757092018
C            7.06660586455511       -0.09723300645825        0.06561602654363
O            8.35539106448607       -0.18939862850069        0.50449818134901
C            9.18470013096409        0.92824728855786        0.37029977827365
C            6.32691889811893       -1.27799430624115        0.22446562366115
O            6.97676208311333       -2.33301804168949        0.77693571194617
C            6.24453497604790       -3.52295608861604        0.93556877657442
C            5.03101028195722       -1.30127625741402       -0.20972445664291
C           -0.10834757231252       -1.41729833527916       -0.60406579543254
C           -3.84226496028702        3.07107235603212        0.55061305835030
C           -4.48318520309242        2.80649005625858        1.91351623708379
C           -3.34128509100878        4.51240970344038        0.49898251398272
H           -4.62474722757032        0.92928429136926       -1.33377920408858
H           -6.81701812417828        0.27441837812534       -1.84963525123580
H           -7.15431427575446       -1.17745183159806       -2.82549463691163
H           -5.62207211401723       -0.29550263341249       -3.04933667851304
H           -5.00382019163571       -3.66050450061348        2.46150328314877
H           -5.40942769021367       -4.93104304562240        1.27962700628723
H           -3.72483560976058       -4.37406381730880        1.44061197472065
H           -3.16507096155815       -2.19987703410140        2.16298597592731
H           -2.19804085169632        0.02731594778864        2.04689490027888
H           -2.97948584424142        2.38280628710849       -1.86703088966630
H           -1.57591509482880        3.17499706100234       -1.18170142957370
H           -1.80375120651392        0.16635393182098       -1.64379882753098
H           -1.07237575367689        1.32720132654139       -2.76851623818815
H           -0.69670670199689        1.57548889278716        0.75454191091540
H            0.69177667067010        1.85736036877875       -1.03740960416559
H            2.10530193718109       -0.81435745101117        0.76243978156030
H            2.24068475171256        0.82927045308494        0.13245966118141
H            2.67608177625994       -0.21920887867574       -2.16311747716287
H            2.89211594423696       -1.75174446464932       -1.31015909330331
H            4.69462018111751        1.84630950090393       -1.36940270094330
H            7.01062253101133        1.91887088772735       -0.61742189633865
H            8.80268529301409        1.78330592648764        0.93635156344110
H            9.32334071034907        1.21219448571234       -0.67716094105928
H           10.14306176488372        0.62658363178675        0.78350753859724
H            6.93334190077895       -4.23223833376694        1.38362291145358
H            5.37636379534858       -3.39615782966196        1.59490276097818
H            5.91332838726909       -3.92195156203094       -0.02579319497882
H            4.43160427819000       -2.17940231313227       -0.11224177299360
H           -0.28892345784181       -1.73522261381729       -1.63806286751276
H           -1.07644215577194       -1.32648251803201       -0.09841146249682
H            0.48330904988104       -2.17444582543772       -0.09834248803841
H           -4.61271971027553        2.95257355746677       -0.22273204709784
H           -3.73945507000239        2.92388695210014        2.69599516604137
H           -4.87902216672254        1.79494681723351        1.96507115619516
H           -5.29529284629829        3.51061073538645        2.08545675487561
H           -2.55308140583873        4.65213452826640        1.23163645635950
H           -2.96981709096544        4.77273896848414       -0.48695513192943
H           -4.15689102142345        5.19242079812371        0.73811167359846
H           -0.61421281374013        2.74675319695555        2.73586533922233
72
 energy: 5.863673571736 xtb: 6.6.1 (8d0f1dd)
N           -1.50318958230545        2.83225984665208        2.24434630207376
C           -1.55349050635567        2.10736221638971        1.21388778850274
C           -2.71749634346685        2.02652449046187        0.25980139460464
C           -3.32953455075487        0.63871998308842        0.34552263746711
C           -4.30458684129001        0.23649372930755       -0.56898056753280
C           -4.87981380717407       -1.01840483810617       -0.51220869717159
O           -5.84341253030469       -1.48670318538709       -1.36045590432286
C           -6.36881910987516       -0.61188587735747       -2.32357334479229
C           -4.47494256382866       -1.92546808826264        0.48973913584531
O           -5.09653098701460       -3.14184119501763        0.46397137190254
C           -4.80297872391960       -4.05748426976306        1.48572678551321
C           -3.50797685813042       -1.52835204491098        1.39403704745766
C           -2.94278167871379       -0.26011533866931        1.31993295349139
C           -2.14157137106310        2.23499037426682       -1.16941917780894
C           -1.26046926300271        1.08522258468526       -1.70806448643651
C            0.01813394207158        0.96947104947068       -0.96183189054371
N            0.60339968374990       -0.21819932011467       -0.53894218103808
C            1.96809674268748       -0.22636086188025       -0.12045163791249
C            2.98031659986705       -0.68218372998313       -1.18261146883180
C            4.39342162718939       -0.17295161170936       -0.81310547209950