      -----------------------------------------------------------      
     |                   =====================                   |     
     |                           x T B                           |     
     |                   =====================                   |     
     |                         S. Grimme                         |     
     |          Mulliken Center for Theoretical Chemistry        |     
     |                    University of Bonn                     |     
      -----------------------------------------------------------      

   * xtb version 6.6.1 (8d0f1dd) compiled by 'conda@1efc2f54142f' on 2023-08-01

   xtb is free software: you can redistribute it and/or modify it under
   the terms of the GNU Lesser General Public License as published by
   the Free Software Foundation, either version 3 of the License, or
   (at your option) any later version.
   
   xtb is distributed in the hope that it will be useful,
   but WITHOUT ANY WARRANTY; without even the implied warranty of
   MERCHANTABILITY or FITNESS FOR A PARTICULAR PURPOSE.  See the
   GNU Lesser General Public License for more details.
   
   Cite this work as:
   * C. Bannwarth, E. Caldeweyher, S. Ehlert, A. Hansen, P. Pracht,
     J. Seibert, S. Spicher, S. Grimme, WIREs Comput. Mol. Sci., 2020, 11,
     e01493. DOI: 10.1002/wcms.1493
   
   for GFN2-xTB:
   * C. Bannwarth, S. Ehlert and S. Grimme., J. Chem. Theory Comput., 2019,
     15, 1652-1671. DOI: 10.1021/acs.jctc.8b01176
   for GFN1-xTB:
   * S. Grimme, C. Bannwarth, P. Shushkov, J. Chem. Theory Comput., 2017,
     13, 1989-2009. DOI: 10.1021/acs.jctc.7b00118
   for GFN0-xTB:
   * P. Pracht, E. Caldeweyher, S. Ehlert, S. Grimme, ChemRxiv, 2019, preprint.
     DOI: 10.26434/chemrxiv.8326202.v1
   for GFN-FF:
   * S. Spicher and S. Grimme, Angew. Chem. Int. Ed., 2020, 59, 15665-15673.
     DOI: 10.1002/anie.202004239
   
   for ALPB and GBSA implicit solvation:
   * S. Ehlert, M. Stahn, S. Spicher, S. Grimme, J. Chem. Theory Comput.,
     2021, 17, 4250-4261. DOI: 10.1021/acs.jctc.1c00471
   
   for DFT-D4:
   * E. Caldeweyher, C. Bannwarth and S. Grimme, J. Chem. Phys., 2017,
     147, 034112. DOI: 10.1063/1.4993215
   * E. Caldeweyher, S. Ehlert, A. Hansen, H. Neugebauer, S. Spicher,
     C. Bannwarth and S. Grimme, J. Chem. Phys., 2019, 150, 154122.
     DOI: 10.1063/1.5090222
   * E. Caldeweyher, J.-M. Mewes, S. Ehlert and S. Grimme, Phys. Chem. Chem. Phys.
     2020, 22, 8499-8512. DOI: 10.1039/D0CP00502A
   
   for sTDA-xTB:
   * S. Grimme and C. Bannwarth, J. Chem. Phys., 2016, 145, 054103.
     DOI: 10.1063/1.4959605
   
   in the mass-spec context:
   * V. Asgeirsson, C. Bauer and S. Grimme, Chem. Sci., 2017, 8, 4879.
     DOI: 10.1039/c7sc00601b
   * J. Koopman and S. Grimme, ACS Omega 2019, 4, 12, 15120-15133.
     DOI: 10.1021/acsomega.9b02011
   
   for metadynamics refer to:
   * S. Grimme, J. Chem. Theory Comput., 2019, 155, 2847-2862
     DOI: 10.1021/acs.jctc.9b00143
   
   for SPH calculations refer to:
   * S. Spicher and S. Grimme, J. Chem. Theory Comput., 2021, 17, 1701-1714
     DOI: 10.1021/acs.jctc.0c01306
   
   with help from (in alphabetical order)
   P. Atkinson, C. Bannwarth, F. Bohle, G. Brandenburg, E. Caldeweyher
   M. Checinski, S. Dohm, S. Ehlert, S. Ehrlich, I. Gerasimov, C. Hölzer
   A. Katbashev, J. Koopman, C. Lavigne, S. Lehtola, F. März, M. Müller,
   F. Musil, H. Neugebauer, J. Pisarek, C. Plett, P. Pracht, F. Pultar,
   J. Seibert, P. Shushkov, S. Spicher, M. Stahn, M. Steiner, T. Strunk,
   J. Stückrath, T. Rose, and J. Unsleber
   
 * started run on 2024/06/05 at 19:58:31.206     

           -------------------------------------------------
          |                Calculation Setup                |
           -------------------------------------------------

          program call               : xtb struc.xyz --opt loose --input .xc1 --gfn2
          hostname                   : n-62-11-68
          coordinate file            : struc.xyz
          omp threads                :                     1

   ID    Z sym.   atoms
    1    6 C      1, 3, 5-7, 10, 11, 14
    2    7 N      2, 4, 9, 13
    3    8 O      8, 12
    4    1 H      15-25
constraining bond 6 18 to    3.7133300 Å, actual value:    3.2169490 Å

           -------------------------------------------------
          |                 G F N 2 - x T B                 |
           -------------------------------------------------

        Reference                      10.1021/acs.jctc.8b01176
      * Hamiltonian:
        H0-scaling (s, p, d)           1.850000    2.230000    2.230000
        zeta-weighting                 0.500000
      * Dispersion:
        s8                             2.700000
        a1                             0.520000
        a2                             5.000000
        s9                             5.000000
      * Repulsion:
        kExp                           1.500000    1.000000
        rExp                           1.000000
      * Coulomb:
        alpha                          2.000000
        third order                    shell-resolved
        anisotropic                    true
        a3                             3.000000
        a5                             4.000000
        cn-shift                       1.200000
        cn-exp                         4.000000
        max-rad                        5.000000


          ...................................................
          :                      SETUP                      :
          :.................................................:
          :  # basis functions                  67          :
          :  # atomic orbitals                  67          :
          :  # shells                           39          :
          :  # electrons                        74          :
          :  max. iterations                   250          :
          :  Hamiltonian                  GFN2-xTB          :
          :  restarted?                      false          :
          :  GBSA solvation                  false          :
          :  PC potential                    false          :
          :  electronic temp.         5000.0000000     K    :
          :  accuracy                    1.0000000          :
          :  -> integral cutoff          0.2500000E+02      :
          :  -> integral neglect         0.1000000E-07      :
          :  -> SCF convergence          0.1000000E-05 Eh   :
          :  -> wf. convergence          0.1000000E-03 e    :
          :  Broyden damping             0.4000000          :
          ...................................................

 iter      E             dE          RMSdq      gap      omega  full diag
   1    -42.5894031 -0.425894E+02  0.445E+00    3.52       0.0  T
   2    -42.7683054 -0.178902E+00  0.251E+00    3.36       1.0  T
   3    -42.7759211 -0.761567E-02  0.147E+00    3.35       1.0  T
   4    -42.7728404  0.308066E-02  0.553E-01    3.33       1.0  T
   5    -42.7789548 -0.611444E-02  0.112E-01    3.35       1.0  T
   6    -42.7790473 -0.924914E-04  0.614E-02    3.33       1.0  T
   7    -42.7790721 -0.247928E-04  0.258E-02    3.34       1.0  T
   8    -42.7790772 -0.508996E-05  0.938E-03    3.34       2.1  T
   9    -42.7790779 -0.669422E-06  0.448E-03    3.34       4.5  T
  10    -42.7790780 -0.821510E-07  0.115E-03    3.34      17.4  T
  11    -42.7790780 -0.322663E-08  0.553E-04    3.34      36.2  T
  12    -42.7790780 -0.287051E-08  0.180E-04    3.34     111.1  T

   *** convergence criteria satisfied after 12 iterations ***

         #    Occupation            Energy/Eh            Energy/eV
      -------------------------------------------------------------
         1        2.0000           -0.9185990             -24.9964
       ...           ...                  ...                  ...
        31        1.9996           -0.6230278             -16.9534
        32        1.9995           -0.6194601             -16.8564
        33        1.9979           -0.5974976             -16.2587
        34        1.9932           -0.5789629             -15.7544
        35        1.9817           -0.5631863             -15.3251
        36        1.9779           -0.5602245             -15.2445
        37        1.9748           -0.5581234             -15.1873 (HOMO)
        38        0.0652           -0.4353579             -11.8467 (LUMO)
        39        0.0099           -0.4050467             -11.0219
        40        0.0013           -0.3732218             -10.1559
        41        0.0000           -0.2886859              -7.8555
        42                         -0.2065804              -5.6213
       ...                                ...                  ...
        67                          0.5625656              15.3082
      -------------------------------------------------------------
                  HL-Gap            0.1227656 Eh            3.3406 eV
             Fermi-level           -0.4890455 Eh          -13.3076 eV

 SCC (total)                   0 d,  0 h,  0 min,  0.033 sec
 SCC setup                      ...        0 min,  0.000 sec (  0.849%)
 Dispersion                     ...        0 min,  0.000 sec (  0.927%)
 classical contributions        ...        0 min,  0.000 sec (  0.291%)
 integral evaluation            ...        0 min,  0.005 sec ( 15.891%)
 iterations                     ...        0 min,  0.016 sec ( 47.145%)
 molecular gradient             ...        0 min,  0.011 sec ( 34.472%)
 printout                       ...        0 min,  0.000 sec (  0.403%)

         :::::::::::::::::::::::::::::::::::::::::::::::::::::
         ::                     SUMMARY                     ::
         :::::::::::::::::::::::::::::::::::::::::::::::::::::
         :: total energy             -42.687803089948 Eh    ::
         :: gradient norm              1.324492508038 Eh/a0 ::
         :: HOMO-LUMO gap              3.340621582928 eV    ::
         ::.................................................::
         :: SCC energy               -42.779077977399 Eh    ::
         :: -> isotropic ES            0.141123876439 Eh    ::
         :: -> anisotropic ES         -0.005230418907 Eh    ::
         :: -> anisotropic XC          0.011966818540 Eh    ::
         :: -> dispersion             -0.022657731803 Eh    ::
         :: repulsion energy           0.531105277918 Eh    ::
         :: add. restraining          -0.439944549477 Eh    ::
         :: total charge               1.000000000002 e     ::
         :::::::::::::::::::::::::::::::::::::::::::::::::::::

      ----------------------------------------------------------- 
     |                   =====================                   |
     |                        A N C O P T                        |
     |                   =====================                   |
     |               Approximate Normal Coordinate               |
     |                Rational Function Optimizer                |
      ----------------------------------------------------------- 

          ...................................................
          :                      SETUP                      :
          :.................................................:
          :   optimization level             loose          :
          :   max. optcycles                   200          :
          :   ANC micro-cycles                  20          :
          :   degrees of freedom                69          :
          :.................................................:
          :   RF solver                   davidson          :
          :   write xtbopt.log                true          :
          :   linear?                        false          :
          :   energy convergence         0.5000000E-04 Eh   :
          :   grad. convergence          0.4000000E-02 Eh/α :
          :   maxmium RF displ.          1.0000000          :
          :   Hlow (freq-cutoff)         0.1000000E-01      :
          :   Hmax (freq-cutoff)         5.0000000          :
          :   S6 in model hess.         20.0000000          :
          ...................................................

generating ANC from model Hessian ...
Using Lindh-Hessian (1995)
 Shifting diagonal of input Hessian by    1.3394267672573617     
 Lowest  eigenvalues of input Hessian
    0.010000    0.000000    0.000000    0.000000    0.000000    0.000000
    0.000000    1.342531    1.345010    1.346502    1.348702    1.349750
    1.351448    1.351679    1.353611    1.361576    1.364113    1.376249
 Highest eigenvalues
    3.358619    3.495953    3.564082    3.623318    3.746978    3.887262


........................................................................
.............................. CYCLE    1 ..............................
........................................................................

 iter      E             dE          RMSdq      gap      omega  full diag
   1    -42.7790780 -0.427791E+02  0.626E-05    3.34       0.0  T
   2    -42.7790780 -0.124416E-10  0.329E-05    3.34     607.4  T
   3    -42.7790780  0.127898E-12  0.193E-05    3.34    1034.2  T
     SCC iter.                  ...        0 min,  0.004 sec
     gradient                   ...        0 min,  0.011 sec
 * total energy  :   -42.6878031 Eh     change       -0.6650680E-10 Eh
   gradient norm :     1.3244923 Eh/α   predicted     0.0000000E+00 (-100.00%)
   displ. norm   :     0.9886793 α      lambda       -0.1289002E+01
   maximum displ.:     0.9850347 α      in ANC's #1, #62, #64, ...

........................................................................
.............................. CYCLE    2 ..............................
........................................................................

 iter      E             dE          RMSdq      gap      omega  full diag
   1    -42.7416388 -0.427416E+02  0.176E+00    3.51       0.0  T
   2    -42.7525804 -0.109416E-01  0.991E-01    3.53       1.0  T
   3    -42.7542676 -0.168726E-02  0.582E-01    3.46       1.0  T
   4    -42.7560734 -0.180576E-02  0.918E-02    3.49       1.0  T
   5    -42.7561457 -0.723629E-04  0.308E-02    3.49       1.0  T
   6    -42.7561582 -0.124963E-04  0.210E-02    3.49       1.0  T
   7    -42.7561613 -0.305764E-05  0.567E-03    3.49       3.5  T
   8    -42.7561617 -0.388413E-06  0.137E-03    3.49      14.6  T
   9    -42.7561617 -0.428397E-08  0.801E-04    3.49      25.0  T
  10    -42.7561617 -0.169535E-08  0.257E-04    3.49      77.9  T
     SCC iter.                  ...        0 min,  0.012 sec
     gradient                   ...        0 min,  0.011 sec
 * total energy  :   -44.5889075 Eh     change       -0.1901104E+01 Eh
   gradient norm :     2.4628835 Eh/α   predicted    -0.1274492E+01 ( -32.96%)
   displ. norm   :     0.9810501 α      lambda       -0.2371200E+01
   maximum displ.:     0.9664085 α      in ANC's #1, #58, #62, ...

........................................................................
.............................. CYCLE    3 ..............................
........................................................................

 iter      E             dE          RMSdq      gap      omega  full diag
   1    -42.3364163 -0.423364E+02  0.227E+00    2.35       0.0  T
   2    -42.3379858 -0.156951E-02  0.258E+00    0.94       1.0  T
   3    -42.4756332 -0.137647E+00  0.968E-01    1.77       1.0  T
   4    -42.4664639  0.916928E-02  0.737E-01    1.37       1.0  T
   5    -42.4762313 -0.976736E-02  0.114E-01    1.73       1.0  T
   6    -42.4764786 -0.247346E-03  0.400E-02    1.71       1.0  T
   7    -42.4765001 -0.214699E-04  0.238E-02    1.73       1.0  T
   8    -42.4765031 -0.301898E-05  0.722E-03    1.72       2.8  T
   9    -42.4765038 -0.637228E-06  0.209E-03    1.73       9.6  T
  10    -42.4765038 -0.232239E-07  0.964E-04    1.73      20.7  T
  11    -42.4765038 -0.499021E-08  0.461E-04    1.73      43.3  T
     SCC iter.                  ...        0 min,  0.013 sec
     gradient                   ...        0 min,  0.011 sec
 * total energy  :   -47.1978447 Eh     change       -0.2608937E+01 Eh
   gradient norm :     4.7562759 Eh/α   predicted    -0.2326692E+01 ( -10.82%)
   displ. norm   :     0.8561976 α      lambda       -0.3935434E+01
   maximum displ.:     0.5837677 α      in ANC's #1, #50, #65, ...

........................................................................
.............................. CYCLE    4 ..............................
........................................................................

 iter      E             dE          RMSdq      gap      omega  full diag
   1    -42.1555036 -0.421555E+02  0.215E+00    0.46       0.0  T
   2    -42.1054354  0.500683E-01  0.210E+00    0.10       1.0  T
   3    -42.1563344 -0.508991E-01  0.101E+00    0.82       1.0  T
   4    -42.1213753  0.349591E-01  0.143E+00    0.27       1.0  T
   5    -42.1916378 -0.702625E-01  0.162E-01    0.37       1.0  T
   6    -42.1920392 -0.401467E-03  0.840E-02    0.35       1.0  T
   7    -42.1921121 -0.728414E-04  0.374E-02    0.35       1.0  T
   8    -42.1921303 -0.182326E-04  0.869E-03    0.35       2.3  T
   9    -42.1921320 -0.169936E-05  0.249E-03    0.36       8.0  T
  10    -42.1921320 -0.157826E-07  0.131E-03    0.35      15.3  T
  11    -42.1921320 -0.897758E-08  0.323E-04    0.35      61.9  T
  12    -42.1921320 -0.471367E-09  0.187E-04    0.35     106.8  T
     SCC iter.                  ...        0 min,  0.015 sec
     gradient                   ...        0 min,  0.011 sec
 * total energy  :   -50.2821961 Eh     change       -0.3084351E+01 Eh
   gradient norm :     5.0020538 Eh/α   predicted    -0.3410494E+01 (  10.57%)
   displ. norm   :     0.9470085 α      lambda       -0.4057360E+01
   maximum displ.:     0.8696604 α      in ANC's #1, #65, #50, ...

........................................................................
.............................. CYCLE    5 ..............................
........................................................................

 iter      E             dE          RMSdq      gap      omega  full diag
   1    -41.9350692 -0.419351E+02  0.433E+00    1.20       0.0  T
   2    -41.7178815  0.217188E+00  0.330E+00    1.30       1.0  T
   3    -41.8574955 -0.139614E+00  0.304E+00    1.42       1.0  T
   4    -42.0374073 -0.179912E+00  0.112E+00    1.01       1.0  T
   5    -42.0427520 -0.534471E-02  0.832E-01    0.94       1.0  T
   6    -42.0708481 -0.280961E-01  0.217E-01    0.97       1.0  T
   7    -42.0719554 -0.110729E-02  0.903E-02    0.99       1.0  T
   8    -42.0721233 -0.167934E-03  0.353E-02    1.00       1.0  T
   9    -42.0721446 -0.212637E-04  0.867E-03    1.00       2.3  T
  10    -42.0721455 -0.893688E-06  0.340E-03    1.00       5.9  T
  11    -42.0721456 -0.132818E-06  0.155E-03    1.00      12.9  T
  12    -42.0721457 -0.334204E-07  0.450E-04    1.00      44.5  T
  13    -42.0721457 -0.539231E-08  0.151E-04    1.00     132.6  T
     SCC iter.                  ...        0 min,  0.016 sec
     gradient                   ...        0 min,  0.011 sec
 * total energy  :   -53.9838213 Eh     change       -0.3701625E+01 Eh
   gradient norm :     8.6611122 Eh/α   predicted    -0.3848050E+01 (   3.96%)
   displ. norm   :     0.8954958 α      lambda       -0.5399364E+01
   maximum displ.:     0.7341360 α      in ANC's #1, #63, #66, ...

........................................................................
.............................. CYCLE    6 ..............................
........................................................................

 iter      E             dE          RMSdq      gap      omega  full diag
   1    -42.1912151 -0.421912E+02  0.185E+00    0.92       0.0  T
   2    -41.9703495  0.220866E+00  0.273E+00    0.83       1.0  T
   3    -42.2440083 -0.273659E+00  0.913E-01    0.76       1.0  T
   4    -42.2471391 -0.313074E-02  0.537E-01    0.90       1.0  T
   5    -42.2479255 -0.786435E-03  0.383E-01    0.60       1.0  T
   6    -42.2523816 -0.445605E-02  0.232E-01    0.81       1.0  T
   7    -42.2538704 -0.148884E-02  0.811E-02    0.76       1.0  T
   8    -42.2540317 -0.161284E-03  0.154E-02    0.74       1.3  T
   9    -42.2540330 -0.135345E-05  0.613E-03    0.74       3.3  T
  10    -42.2540335 -0.443972E-06  0.199E-03    0.74      10.0  T
  11    -42.2540335 -0.500630E-07  0.624E-04    0.74      32.1  T
  12    -42.2540335 -0.318771E-08  0.211E-04    0.74      95.0  T
     SCC iter.                  ...        0 min,  0.014 sec
     gradient                   ...        0 min,  0.011 sec
 * total energy  :   -57.0428850 Eh     change       -0.3059064E+01 Eh
   gradient norm :     6.8339444 Eh/α   predicted    -0.4864593E+01 (  59.02%)
   displ. norm   :     0.7420096 α      lambda       -0.4365208E+01
   maximum displ.:     0.3076915 α      in ANC's #58, #63, #1, ...

........................................................................
.............................. CYCLE    7 ..............................
........................................................................

 iter      E             dE          RMSdq      gap      omega  full diag
   1    -42.0763187 -0.420763E+02  0.330E+00    0.59       0.0  T
   2    -41.6253534  0.450965E+00  0.397E+00    0.18       1.0  T
   3    -42.1892768 -0.563923E+00  0.187E+00    0.62       1.0  T
   4    -42.2223291 -0.330523E-01  0.182E+00    0.75       1.0  T
   5    -42.2847658 -0.624367E-01  0.645E-01    0.21       1.0  T
   6    -42.2847304  0.354054E-04  0.451E-01    0.20       1.0  T
   7    -42.2904592 -0.572883E-02  0.846E-02    0.14       1.0  T
   8    -42.2905642 -0.104994E-03  0.358E-02    0.13       1.0  T
   9    -42.2905698 -0.556776E-05  0.117E-02    0.13       1.7  T
  10    -42.2905722 -0.240726E-05  0.395E-03    0.13       5.1  T
  11    -42.2905723 -0.825434E-07  0.191E-03    0.13      10.5  T
  12    -42.2905723 -0.227270E-07  0.936E-04    0.13      21.4  T
  13    -42.2905723 -0.467408E-08  0.180E-04    0.13     111.1  T
     SCC iter.                  ...        0 min,  0.016 sec
     gradient                   ...        0 min,  0.011 sec
 * total energy  :   -58.2521424 Eh     change       -0.1209257E+01 Eh
   gradient norm :     4.7195666 Eh/α   predicted    -0.3384297E+01 ( 179.87%)
   displ. norm   :     0.5908583 α      lambda       -0.1425041E+01
   maximum displ.:     0.2509606 α      in ANC's #63, #64, #65, ...

........................................................................
.............................. CYCLE    8 ..............................
........................................................................

 iter      E             dE          RMSdq      gap      omega  full diag
   1    -42.1736713 -0.421737E+02  0.167E+00    0.75       0.0  T
   2    -41.6647105  0.508961E+00  0.363E+00    0.57       1.0  T
   3    -42.2806038 -0.615893E+00  0.968E-01    0.15       1.0  T
   4    -42.2632639  0.173399E-01  0.105E+00    0.37       1.0  T
   5    -42.2727006 -0.943672E-02  0.679E-01    0.12       1.0  T
   6    -42.2837221 -0.110214E-01  0.297E-01    0.14       1.0  T
   7    -42.2865327 -0.281065E-02  0.193E-01    0.01       1.0  T
   8    -42.2865620 -0.293329E-04  0.123E-01    0.01       1.0  T
   9    -42.2866125 -0.504311E-04  0.285E-02    0.02       1.0  T
  10    -42.2866250 -0.125067E-04  0.169E-02    0.02       1.2  T
  11    -42.2866268 -0.181514E-05  0.293E-03    0.02       6.8  T
  12    -42.2866268 -0.273600E-07  0.667E-04    0.02      30.0  T
  13    -42.2866268 -0.411979E-08  0.538E-04    0.02      37.2  T
     SCC iter.                  ...        0 min,  0.016 sec
     gradient                   ...        0 min,  0.011 sec
 * total energy  :   -58.9609056 Eh     change       -0.7087632E+00 Eh
   gradient norm :     2.2664125 Eh/α   predicted    -0.9612722E+00 (  35.63%)
   displ. norm   :     0.8242980 α      lambda       -0.1359435E+01
   maximum displ.:     0.5848618 α      in ANC's #1, #49, #39, ...

........................................................................
.............................. CYCLE    9 ..............................
........................................................................

 iter      E             dE          RMSdq      gap      omega  full diag
   1    -42.2086435 -0.422086E+02  0.222E+00    0.43       0.0  T
   2    -42.2135106 -0.486718E-02  0.176E+00    0.09       1.0  T
   3    -42.2746315 -0.611209E-01  0.831E-01    0.20       1.0  T
   4    -42.2688199  0.581164E-02  0.686E-01    0.03       1.0  T
   5    -42.2794577 -0.106378E-01  0.287E-01    0.23       1.0  T
   6    -42.2820848 -0.262714E-02  0.179E-01    0.04       1.0  T
   7    -42.2833795 -0.129464E-02  0.456E-02    0.12       1.0  T
   8    -42.2833927 -0.132012E-04  0.199E-02    0.11       1.0  T
   9    -42.2833957 -0.303463E-05  0.702E-03    0.12       2.8  T
  10    -42.2833967 -0.993558E-06  0.260E-03    0.11       7.7  T
  11    -42.2833968 -0.753323E-07  0.926E-04    0.11      21.6  T
  12    -42.2833968 -0.109908E-07  0.337E-04    0.11      59.3  T
     SCC iter.                  ...        0 min,  0.015 sec
     gradient                   ...        0 min,  0.011 sec
 * total energy  :   -57.4849374 Eh     change        0.1475968E+01 Eh
   gradient norm :    19.4628489 Eh/α   predicted    -0.1141564E+01 (-177.34%)
   displ. norm   :     0.7913771 α      lambda       -0.1503224E+02
   maximum displ.:     0.3334293 α      in ANC's #36, #65, #60, ...

........................................................................
.............................. CYCLE   10 ..............................
........................................................................

 iter      E             dE          RMSdq      gap      omega  full diag
   1    -42.0313018 -0.420313E+02  0.286E+00    0.65       0.0  T
   2    -41.2549545  0.776347E+00  0.490E+00    0.88       1.0  T
   3    -42.1010520 -0.846098E+00  0.183E+00    1.00       1.0  T
   4    -42.1486267 -0.475746E-01  0.123E+00    0.25       1.0  T
   5    -42.2111216 -0.624949E-01  0.581E-01    0.40       1.0  T
   6    -42.2186003 -0.747872E-02  0.298E-01    0.14       1.0  T
   7    -42.2207214 -0.212111E-02  0.962E-02    0.23       1.0  T
   8    -42.2208639 -0.142458E-03  0.497E-02    0.24       1.0  T
   9    -42.2209354 -0.715581E-04  0.142E-02    0.24       1.4  T
  10    -42.2209367 -0.128942E-05  0.525E-03    0.24       3.8  T
  11    -42.2209370 -0.236295E-06  0.193E-03    0.24      10.4  T
  12    -42.2209370 -0.452882E-07  0.679E-04    0.24      29.5  T
  13    -42.2209370 -0.411081E-08  0.244E-04    0.24      82.1  T
     SCC iter.                  ...        0 min,  0.016 sec
     gradient                   ...        0 min,  0.011 sec
 * total energy  :   -55.8950906 Eh     change        0.1589847E+01 Eh
   gradient norm :     7.8541425 Eh/α   predicted    -0.1222330E+02 (-868.84%)
   displ. norm   :     0.3228442 α      lambda       -0.1894895E+01
   maximum displ.:     0.1711216 α      in ANC's #1, #36, #39, ...

........................................................................
.............................. CYCLE   11 ..............................
........................................................................

 iter      E             dE          RMSdq      gap      omega  full diag
   1    -42.1716570 -0.421717E+02  0.972E-01    0.30       0.0  T
   2    -42.1294204  0.422366E-01  0.113E+00    0.29       1.0  T
   3    -42.1688228 -0.394025E-01  0.643E-01    0.47       1.0  T
   4    -42.1789076 -0.100848E-01  0.524E-01    0.03       1.0  T
   5    -42.1830165 -0.410882E-02  0.310E-01    0.17       1.0  T
   6    -42.1863560 -0.333956E-02  0.843E-02    0.14       1.0  T
   7    -42.1863995 -0.435295E-04  0.533E-02    0.14       1.0  T
   8    -42.1864595 -0.599140E-04  0.235E-02    0.14       1.0  T
   9    -42.1864723 -0.128727E-04  0.480E-03    0.15       4.2  T
  10    -42.1864728 -0.469725E-06  0.159E-03    0.15      12.6  T
  11    -42.1864728 -0.190762E-07  0.677E-04    0.15      29.5  T
  12    -42.1864728 -0.756730E-08  0.258E-04    0.15      77.6  T
     SCC iter.                  ...        0 min,  0.015 sec
     gradient                   ...        0 min,  0.011 sec
 * total energy  :   -57.5579510 Eh     change       -0.1662860E+01 Eh
   gradient norm :     6.7954169 Eh/α   predicted    -0.1046201E+01 ( -37.08%)
   displ. norm   :     0.7544856 α      lambda       -0.4941590E+01
   maximum displ.:     0.2968626 α      in ANC's #39, #65, #36, ...

........................................................................
.............................. CYCLE   12 ..............................
........................................................................

 iter      E             dE          RMSdq      gap      omega  full diag
   1    -42.1744148 -0.421744E+02  0.273E+00    0.09       0.0  T
   2    -42.0929489  0.814659E-01  0.229E+00    0.17       1.0  T
   3    -42.2487307 -0.155782E+00  0.123E+00    0.12       1.0  T
   4    -42.2729307 -0.242000E-01  0.500E-01    0.08       1.0  T
   5    -42.2727663  0.164398E-03  0.297E-01    0.04       1.0  T
   6    -42.2735312 -0.764854E-03  0.227E-01    0.19       1.0  T
   7    -42.2756241 -0.209288E-02  0.107E-01    0.04       1.0  T
   8    -42.2759279 -0.303834E-03  0.399E-02    0.07       1.0  T
   9    -42.2759403 -0.124201E-04  0.170E-02    0.07       1.2  T
  10    -42.2759493 -0.892245E-05  0.453E-03    0.07       4.4  T
  11    -42.2759496 -0.356584E-06  0.220E-03    0.07       9.1  T
  12    -42.2759497 -0.655320E-07  0.387E-04    0.07      51.7  T
  13    -42.2759497 -0.211124E-08  0.128E-04    0.07     156.1  T
     SCC iter.                  ...        0 min,  0.016 sec
     gradient                   ...        0 min,  0.011 sec
 * total energy  :   -51.7973198 Eh     change        0.5760631E+01 Eh
   gradient norm :    74.7267827 Eh/α   predicted    -0.3877292E+01 (-167.31%)
   displ. norm   :     0.4931958 α      lambda       -0.3684583E+02
   maximum displ.:     0.2144126 α      in ANC's #36, #60, #65, ...

........................................................................
.............................. CYCLE   13 ..............................
........................................................................

 iter      E             dE          RMSdq      gap      omega  full diag
   1    -42.1177102 -0.421177E+02  0.214E+00    0.50       0.0  T
   2    -41.8328430  0.284867E+00  0.310E+00    0.17       1.0  T
   3    -42.1670557 -0.334213E+00  0.114E+00    0.52       1.0  T
   4    -42.1504108  0.166449E-01  0.103E+00    0.38       1.0  T
   5    -42.2032115 -0.528007E-01  0.296E-01    0.18       1.0  T
   6    -42.2055625 -0.235093E-02  0.123E-01    0.11       1.0  T
   7    -42.2058203 -0.257832E-03  0.424E-02    0.12       1.0  T
   8    -42.2058684 -0.481104E-04  0.166E-02    0.13       1.2  T
   9    -42.2058720 -0.356783E-05  0.795E-03    0.13       2.5  T
  10    -42.2058728 -0.831190E-06  0.535E-03    0.13       3.7  T
  11    -42.2058732 -0.442341E-06  0.174E-03    0.13      11.5  T
  12    -42.2058733 -0.781547E-07  0.452E-04    0.13      44.2  T
  13    -42.2058733 -0.975305E-09  0.158E-04    0.13     126.3  T
     SCC iter.                  ...        0 min,  0.016 sec
     gradient                   ...        0 min,  0.011 sec
 * total energy  :   -58.8788187 Eh     change       -0.7081499E+01 Eh
   gradient norm :     4.0506803 Eh/α   predicted    -0.2290414E+02 ( 223.44%)
   displ. norm   :     0.2498207 α      lambda       -0.1408741E+00
   maximum displ.:     0.1115992 α      in ANC's #16, #39, #40, ...

........................................................................
.............................. CYCLE   14 ..............................
........................................................................

 iter      E             dE          RMSdq      gap      omega  full diag
   1    -42.1948293 -0.421948E+02  0.407E-01    0.28       0.0  T
   2    -42.1843347  0.104946E-01  0.672E-01    0.11       1.0  T
   3    -42.1979852 -0.136505E-01  0.215E-01    0.21       1.0  T
   4    -42.1961445  0.184064E-02  0.276E-01    0.05       1.0  T
   5    -42.1979221 -0.177762E-02  0.131E-01    0.18       1.0  T
   6    -42.1986832 -0.761004E-03  0.250E-02    0.16       1.0  T
   7    -42.1986905 -0.736271E-05  0.162E-02    0.16       1.2  T
   8    -42.1986972 -0.670813E-05  0.662E-03    0.16       3.0  T
   9    -42.1986982 -0.100007E-05  0.134E-03    0.17      14.9  T
  10    -42.1986983 -0.537138E-07  0.370E-04    0.17      54.1  T
  11    -42.1986983 -0.737543E-09  0.188E-04    0.17     106.5  T
     SCC iter.                  ...        0 min,  0.013 sec
     gradient                   ...        0 min,  0.011 sec
 * total energy  :   -58.9927830 Eh     change       -0.1139644E+00 Eh
   gradient norm :     3.5426013 Eh/α   predicted    -0.7483241E-01 ( -34.34%)
   displ. norm   :     0.5582509 α      lambda       -0.7227436E+00
   maximum displ.:     0.2331064 α      in ANC's #16, #65, #19, ...

........................................................................
.............................. CYCLE   15 ..............................
........................................................................

 iter      E             dE          RMSdq      gap      omega  full diag
   1    -42.2242417 -0.422242E+02  0.114E+00    0.09       0.0  T
   2    -42.2258021 -0.156033E-02  0.694E-01    0.10       1.0  T
   3    -42.2259005 -0.984585E-04  0.565E-01    0.10       1.0  T
   4    -42.2268326 -0.932084E-03  0.310E-01    0.02       1.0  T
   5    -42.2290157 -0.218312E-02  0.174E-01    0.17       1.0  T
   6    -42.2301159 -0.110017E-02  0.982E-02    0.04       1.0  T
   7    -42.2303865 -0.270578E-03  0.358E-02    0.07       1.0  T
   8    -42.2303884 -0.188694E-05  0.288E-02    0.07       1.0  T
   9    -42.2304121 -0.237937E-04  0.948E-03    0.07       2.1  T
  10    -42.2304142 -0.200222E-05  0.137E-03    0.08      14.6  T
  11    -42.2304142 -0.127834E-07  0.712E-04    0.08      28.1  T
  12    -42.2304142 -0.142150E-08  0.371E-04    0.08      53.9  T
     SCC iter.                  ...        0 min,  0.015 sec
     gradient                   ...        0 min,  0.011 sec
 * total energy  :   -59.1592275 Eh     change       -0.1664445E+00 Eh
   gradient norm :     2.8142429 Eh/α   predicted    -0.4739920E+00 ( 184.77%)
   displ. norm   :     0.2077751 α      lambda       -0.2180526E+00
   maximum displ.:     0.1221800 α      in ANC's #65, #47, #68, ...

........................................................................
.............................. CYCLE   16 ..............................
........................................................................

 iter      E             dE          RMSdq      gap      omega  full diag
   1    -42.2136154 -0.422136E+02  0.777E-01    0.29       0.0  T
   2    -42.1827469  0.308686E-01  0.993E-01    0.31       1.0  T
   3    -42.2091706 -0.264238E-01  0.619E-01    0.42       1.0  T
   4    -42.2225343 -0.133637E-01  0.265E-01    0.08       1.0  T
   5    -42.2220335  0.500843E-03  0.221E-01    0.17       1.0  T
   6    -42.2240529 -0.201945E-02  0.363E-02    0.12       1.0  T
   7    -42.2240671 -0.141936E-04  0.228E-02    0.12       1.0  T
   8    -42.2240786 -0.114902E-04  0.873E-03    0.12       2.3  T
   9    -42.2240792 -0.599008E-06  0.349E-03    0.12       5.7  T
  10    -42.2240792 -0.423175E-07  0.181E-03    0.12      11.1  T
  11    -42.2240793 -0.647693E-07  0.526E-04    0.12      38.0  T
  12    -42.2240793 -0.673604E-08  0.190E-04    0.12     105.1  T
     SCC iter.                  ...        0 min,  0.015 sec
     gradient                   ...        0 min,  0.011 sec
 * total energy  :   -59.2602470 Eh     change       -0.1010195E+00 Eh
   gradient norm :     0.1638197 Eh/α   predicted    -0.1137329E+00 (  12.59%)
   displ. norm   :     0.1272292 α      lambda       -0.1534404E-01
   maximum displ.:     0.0727732 α      in ANC's #16, #19, #40, ...

........................................................................
.............................. CYCLE   17 ..............................
........................................................................

 iter      E             dE          RMSdq      gap      omega  full diag
   1    -42.2291770 -0.422292E+02  0.215E-01    0.18       0.0  T
   2    -42.2259297  0.324728E-02  0.334E-01    0.03       1.0  T
   3    -42.2294180 -0.348824E-02  0.142E-01    0.19       1.0  T
   4    -42.2299439 -0.525951E-03  0.924E-02    0.10       1.0  T
   5    -42.2301438 -0.199938E-03  0.501E-02    0.13       1.0  T
   6    -42.2302268 -0.829294E-04  0.124E-02    0.13       1.6  T
   7    -42.2302312 -0.444557E-05  0.569E-03    0.13       3.5  T
   8    -42.2302320 -0.759960E-06  0.209E-03    0.13       9.6  T
   9    -42.2302320 -0.443657E-07  0.473E-04    0.13      42.3  T
  10    -42.2302320 -0.549520E-09  0.333E-04    0.13      60.1  T
     SCC iter.                  ...        0 min,  0.012 sec
     gradient                   ...        0 min,  0.011 sec
 * total energy  :   -59.2737710 Eh     change       -0.1352403E-01 Eh
   gradient norm :     0.1822019 Eh/α   predicted    -0.7796293E-02 ( -42.35%)
   displ. norm   :     0.5347412 α      lambda       -0.5964561E-01
   maximum displ.:     0.3140027 α      in ANC's #16, #19, #36, ...

........................................................................
.............................. CYCLE   18 ..............................
........................................................................

 iter      E             dE          RMSdq      gap      omega  full diag
   1    -42.2543693 -0.422544E+02  0.701E-01    0.31       0.0  T
   2    -42.2391299  0.152394E-01  0.875E-01    0.17       1.0  T
   3    -42.2546952 -0.155653E-01  0.431E-01    0.36       1.0  T
   4    -42.2506553  0.403989E-02  0.493E-01    0.04       1.0  T
   5    -42.2594924 -0.883708E-02  0.238E-01    0.19       1.0  T
   6    -42.2615107 -0.201828E-02  0.718E-02    0.17       1.0  T
   7    -42.2616907 -0.180052E-03  0.234E-02    0.16       1.0  T
   8    -42.2617006 -0.983310E-05  0.961E-03    0.16       2.1  T
   9    -42.2617013 -0.738678E-06  0.317E-03    0.16       6.3  T
  10    -42.2617017 -0.409193E-06  0.105E-03    0.16      19.1  T
  11    -42.2617017 -0.128566E-07  0.624E-04    0.16      32.0  T
  12    -42.2617017 -0.100253E-07  0.118E-04    0.16     169.0  T
     SCC iter.                  ...        0 min,  0.015 sec
     gradient                   ...        0 min,  0.011 sec
 * total energy  :   -59.3238026 Eh     change       -0.5003162E-01 Eh
   gradient norm :     0.1594587 Eh/α   predicted    -0.3835084E-01 ( -23.35%)
   displ. norm   :     0.6566492 α      lambda       -0.5690518E-01
   maximum displ.:     0.3864830 α      in ANC's #16, #19, #36, ...

........................................................................
.............................. CYCLE   19 ..............................
........................................................................

 iter      E             dE          RMSdq      gap      omega  full diag
   1    -42.2709111 -0.422709E+02  0.811E-01    0.21       0.0  T
   2    -42.2601845  0.107266E-01  0.865E-01    0.10       1.0  T
   3    -42.2746822 -0.144977E-01  0.377E-01    0.23       1.0  T
   4    -42.2625026  0.121796E-01  0.616E-01    0.12       1.0  T
   5    -42.2765703 -0.140677E-01  0.231E-01    0.11       1.0  T
   6    -42.2780113 -0.144103E-02  0.978E-02    0.21       1.0  T
   7    -42.2784038 -0.392499E-03  0.342E-02    0.16       1.0  T
   8    -42.2784369 -0.330535E-04  0.120E-02    0.17       1.7  T
   9    -42.2784392 -0.234231E-05  0.314E-03    0.17       6.4  T
  10    -42.2784395 -0.342938E-06  0.108E-03    0.17      18.6  T
  11    -42.2784395 -0.392674E-08  0.583E-04    0.17      34.3  T
  12    -42.2784396 -0.120378E-07  0.118E-04    0.17     169.6  T
     SCC iter.                  ...        0 min,  0.015 sec
     gradient                   ...        0 min,  0.011 sec
 * total energy  :   -59.3582656 Eh     change       -0.3446300E-01 Eh
   gradient norm :     0.6941077 Eh/α   predicted    -0.4072145E-01 (  18.16%)
   displ. norm   :     0.3155760 α      lambda       -0.3015590E-01
   maximum displ.:     0.1787038 α      in ANC's #16, #19, #36, ...

........................................................................
.............................. CYCLE   20 ..............................
........................................................................

 iter      E             dE          RMSdq      gap      omega  full diag
   1    -42.2750436 -0.422750E+02  0.371E-01    0.11       0.0  T
   2    -42.2740178  0.102581E-02  0.316E-01    0.06       1.0  T
   3    -42.2748244 -0.806597E-03  0.213E-01    0.14       1.0  T
   4    -42.2746831  0.141213E-03  0.184E-01    0.05       1.0  T
   5    -42.2753378 -0.654635E-03  0.115E-01    0.11       1.0  T
   6    -42.2758932 -0.555470E-03  0.452E-02    0.11       1.0  T
   7    -42.2759712 -0.779760E-04  0.130E-02    0.09       1.5  T
   8    -42.2759765 -0.525741E-05  0.533E-03    0.10       3.8  T
   9    -42.2759767 -0.209554E-06  0.193E-03    0.10      10.4  T
  10    -42.2759768 -0.112074E-06  0.840E-04    0.10      23.8  T
  11    -42.2759768 -0.900182E-08  0.241E-04    0.10      82.8  T
     SCC iter.                  ...        0 min,  0.013 sec
     gradient                   ...        0 min,  0.011 sec
 * total energy  :   -59.3739859 Eh     change       -0.1572030E-01 Eh
   gradient norm :     0.1928267 Eh/α   predicted    -0.1657915E-01 (   5.46%)
   displ. norm   :     0.1938554 α      lambda       -0.6457767E-02
   maximum displ.:     0.1148511 α      in ANC's #16, #19, #36, ...
 * RMSD in coord.:     1.2007092 α      energy gain  -0.1668618E+02 Eh

generating ANC from model Hessian ...
Using Lindh-Hessian (1995)
 Shifting diagonal of input Hessian by    9.3377442709973689E-003
 Lowest  eigenvalues of input Hessian
    0.000000    0.000000    0.000000    0.000000    0.000000    0.000000
    0.010000    0.011129    0.011443    0.011750    0.013150    0.014887
    0.017375    0.019517    0.022094    0.022916    0.030161    0.032319
 Highest eigenvalues
    2.044130    2.318540    2.421833    2.632030   16.546264   23.008474


........................................................................
.............................. CYCLE   21 ..............................
........................................................................

 iter      E             dE          RMSdq      gap      omega  full diag
   1    -42.2732720 -0.422733E+02  0.234E-01    0.13       0.0  T
   2    -42.2721347  0.113724E-02  0.253E-01    0.08       1.0  T
   3    -42.2728510 -0.716264E-03  0.157E-01    0.11       1.0  T
   4    -42.2710494  0.180159E-02  0.234E-01    0.14       1.0  T
   5    -42.2736973 -0.264794E-02  0.498E-02    0.10       1.0  T
   6    -42.2737409 -0.436213E-04  0.255E-02    0.11       1.0  T
   7    -42.2737612 -0.203024E-04  0.972E-03    0.11       2.1  T
   8    -42.2737640 -0.275288E-05  0.321E-03    0.11       6.2  T
   9    -42.2737640 -0.236827E-07  0.131E-03    0.11      15.3  T
  10    -42.2737641 -0.579361E-07  0.580E-04    0.11      34.5  T
  11    -42.2737641 -0.613482E-08  0.171E-04    0.11     117.3  T
     SCC iter.                  ...        0 min,  0.014 sec
     gradient                   ...        0 min,  0.011 sec
 * total energy  :   -59.3784199 Eh     change       -0.4434005E-02 Eh
   gradient norm :     0.0959988 Eh/α   predicted     0.0000000E+00 (-100.00%)
   displ. norm   :     0.4121093 α      lambda       -0.2128808E-01
   maximum displ.:     0.1545608 α      in ANC's #36, #7, #14, ...

........................................................................
.............................. CYCLE   22 ..............................
........................................................................

 iter      E             dE          RMSdq      gap      omega  full diag
   1    -42.3015951 -0.423016E+02  0.362E-01    0.07       0.0  T
   2    -42.2985640  0.303116E-02  0.342E-01    0.16       1.0  T
   3    -42.2953968  0.316715E-02  0.386E-01    0.03       1.0  T
   4    -42.3004261 -0.502927E-02  0.211E-01    0.08       1.0  T
   5    -42.3019712 -0.154507E-02  0.761E-02    0.12       1.0  T
   6    -42.3021271 -0.155980E-03  0.320E-02    0.10       1.0  T
   7    -42.3021588 -0.316171E-04  0.110E-02    0.10       1.8  T
   8    -42.3021589 -0.151700E-06  0.753E-03    0.10       2.7  T
   9    -42.3021605 -0.158092E-05  0.205E-03    0.10       9.8  T
  10    -42.3021606 -0.955199E-07  0.822E-04    0.10      24.3  T
  11    -42.3021606 -0.109867E-07  0.236E-04    0.10      84.6  T
     SCC iter.                  ...        0 min,  0.013 sec
     gradient                   ...        0 min,  0.011 sec
 * total energy  :   -59.3728827 Eh     change        0.5537190E-02 Eh
   gradient norm :     1.4063666 Eh/α   predicted    -0.1245179E-01 (-324.88%)
   displ. norm   :     0.4825719 α      lambda       -0.7287456E-01
   maximum displ.:     0.2208260 α      in ANC's #36, #21, #28, ...

........................................................................
.............................. CYCLE   23 ..............................
........................................................................

 iter      E             dE          RMSdq      gap      omega  full diag
   1    -42.3296084 -0.423296E+02  0.500E-01    0.16       0.0  T
   2    -42.3281384  0.147000E-02  0.371E-01    0.10       1.0  T
   3    -42.3202072  0.793124E-02  0.517E-01    0.26       1.0  T
   4    -42.3281214 -0.791422E-02  0.217E-01    0.16       1.0  T
   5    -42.3293142 -0.119286E-02  0.151E-01    0.10       1.0  T
   6    -42.3303388 -0.102460E-02  0.293E-02    0.15       1.0  T
   7    -42.3303563 -0.174349E-04  0.123E-02    0.14       1.6  T
   8    -42.3303563 -0.163964E-07  0.895E-03    0.14       2.2  T
   9    -42.3303581 -0.184669E-05  0.416E-03    0.14       4.8  T
  10    -42.3303586 -0.491054E-06  0.159E-03    0.14      12.6  T
  11    -42.3303587 -0.647506E-07  0.384E-04    0.14      52.1  T
  12    -42.3303587 -0.165817E-08  0.142E-04    0.14     140.6  T
     SCC iter.                  ...        0 min,  0.015 sec
     gradient                   ...        0 min,  0.011 sec
 * total energy  :   -59.3973158 Eh     change       -0.2443308E-01 Eh
   gradient norm :     0.4563415 Eh/α   predicted    -0.4492266E-01 (  83.86%)
   displ. norm   :     0.4119647 α      lambda       -0.1972809E-01
   maximum displ.:     0.1756073 α      in ANC's #12, #18, #6, ...

........................................................................
.............................. CYCLE   24 ..............................
........................................................................

 iter      E             dE          RMSdq      gap      omega  full diag
   1    -42.3273845 -0.423274E+02  0.430E-01    0.28       0.0  T
   2    -42.3198286  0.755589E-02  0.549E-01    0.06       1.0  T
   3    -42.3274217 -0.759307E-02  0.296E-01    0.30       1.0  T
   4    -42.3266564  0.765245E-03  0.262E-01    0.18       1.0  T
   5    -42.3283692 -0.171273E-02  0.144E-01    0.23       1.0  T
   6    -42.3291842 -0.814974E-03  0.627E-02    0.23       1.0  T
   7    -42.3293564 -0.172259E-03  0.147E-02    0.22       1.4  T
   8    -42.3293612 -0.482513E-05  0.680E-03    0.22       2.9  T
   9    -42.3293620 -0.744528E-06  0.103E-03    0.22      19.5  T
  10    -42.3293620 -0.159778E-07  0.542E-04    0.22      36.9  T
  11    -42.3293620 -0.159631E-08  0.264E-04    0.22      75.6  T
     SCC iter.                  ...        0 min,  0.014 sec
     gradient                   ...        0 min,  0.011 sec
 * total energy  :   -59.4147916 Eh     change       -0.1747581E-01 Eh
   gradient norm :     0.1834000 Eh/α   predicted    -0.1153821E-01 ( -33.98%)
   displ. norm   :     0.7966107 α      lambda       -0.3635411E-01
   maximum displ.:     0.3588483 α      in ANC's #18, #12, #32, ...

........................................................................
.............................. CYCLE   25 ..............................
........................................................................

 iter      E             dE          RMSdq      gap      omega  full diag
   1    -42.3148080 -0.423148E+02  0.968E-01    0.63       0.0  T
   2    -42.1873941  0.127414E+00  0.199E+00    0.21       1.0  T
   3    -42.3245017 -0.137108E+00  0.597E-01    0.61       1.0  T
   4    -42.3250048 -0.503086E-03  0.493E-01    0.40       1.0  T
   5    -42.3309946 -0.598986E-02  0.172E-01    0.47       1.0  T
   6    -42.3289486  0.204606E-02  0.264E-01    0.49       1.0  T
   7    -42.3324420 -0.349344E-02  0.415E-02    0.47       1.0  T
   8    -42.3324559 -0.138969E-04  0.163E-02    0.47       1.2  T
   9    -42.3324597 -0.378079E-05  0.869E-03    0.47       2.3  T
  10    -42.3324616 -0.194599E-05  0.253E-03    0.47       7.9  T
  11    -42.3324618 -0.111293E-06  0.745E-04    0.47      26.8  T
  12    -42.3324618 -0.806006E-08  0.368E-04    0.47      54.4  T
     SCC iter.                  ...        0 min,  0.015 sec
     gradient                   ...        0 min,  0.011 sec
 * total energy  :   -59.4415328 Eh     change       -0.2674117E-01 Eh
   gradient norm :     0.3140517 Eh/α   predicted    -0.2971202E-01 (  11.11%)
   displ. norm   :     0.4791670 α      lambda       -0.2180970E-01
   maximum displ.:     0.2277993 α      in ANC's #12, #32, #20, ...

........................................................................
.............................. CYCLE   26 ..............................
........................................................................

 iter      E             dE          RMSdq      gap      omega  full diag
   1    -42.3371207 -0.423371E+02  0.644E-01    0.61       0.0  T
   2    -42.2667919  0.703288E-01  0.144E+00    0.24       1.0  T
   3    -42.3435565 -0.767646E-01  0.291E-01    0.54       1.0  T
   4    -42.3401880  0.336854E-02  0.366E-01    0.46       1.0  T
   5    -42.3442587 -0.407075E-02  0.676E-02    0.52       1.0  T
   6    -42.3439679  0.290854E-03  0.903E-02    0.50       1.0  T
   7    -42.3442973 -0.329479E-03  0.421E-02    0.51       1.0  T
   8    -42.3443655 -0.681403E-04  0.116E-02    0.51       1.7  T
   9    -42.3443702 -0.469807E-05  0.455E-03    0.51       4.4  T
  10    -42.3443706 -0.432909E-06  0.110E-03    0.51      18.1  T
  11    -42.3443706 -0.792547E-08  0.461E-04    0.51      43.3  T
  12    -42.3443706 -0.477620E-08  0.173E-04    0.51     115.3  T
     SCC iter.                  ...        0 min,  0.015 sec
     gradient                   ...        0 min,  0.011 sec
 * total energy  :   -59.4561996 Eh     change       -0.1466683E-01 Eh
   gradient norm :     0.1814234 Eh/α   predicted    -0.1340861E-01 (  -8.58%)
   displ. norm   :     0.3975472 α      lambda       -0.2204480E-01
   maximum displ.:     0.1723543 α      in ANC's #20, #18, #36, ...

........................................................................
.............................. CYCLE   27 ..............................
........................................................................

 iter      E             dE          RMSdq      gap      omega  full diag
   1    -42.3809295 -0.423809E+02  0.456E-01    0.61       0.0  T
   2    -42.3735160  0.741351E-02  0.525E-01    0.49       1.0  T
   3    -42.3779303 -0.441429E-02  0.390E-01    0.67       1.0  T
   4    -42.3805764 -0.264615E-02  0.256E-01    0.54       1.0  T
   5    -42.3824785 -0.190204E-02  0.855E-02    0.61       1.0  T
   6    -42.3824219  0.565910E-04  0.848E-02    0.57       1.0  T
   7    -42.3827808 -0.358888E-03  0.126E-02    0.58       1.6  T
   8    -42.3827826 -0.186170E-05  0.740E-03    0.58       2.7  T
   9    -42.3827842 -0.156241E-05  0.155E-03    0.58      12.9  T
  10    -42.3827842 -0.166679E-07  0.612E-04    0.58      32.7  T
  11    -42.3827842 -0.221326E-08  0.247E-04    0.58      81.0  T
     SCC iter.                  ...        0 min,  0.013 sec
     gradient                   ...        0 min,  0.011 sec
 * total energy  :   -59.4704450 Eh     change       -0.1424534E-01 Eh
   gradient norm :     0.6451576 Eh/α   predicted    -0.1276441E-01 ( -10.40%)
   displ. norm   :     0.4107715 α      lambda       -0.2352304E-01
   maximum displ.:     0.1857633 α      in ANC's #36, #18, #20, ...

........................................................................
.............................. CYCLE   28 ..............................
........................................................................

 iter      E             dE          RMSdq      gap      omega  full diag
   1    -42.4155911 -0.424156E+02  0.499E-01    0.66       0.0  T
   2    -42.4019761  0.136150E-01  0.666E-01    0.72       1.0  T
   3    -42.4149073 -0.129312E-01  0.313E-01    0.64       1.0  T
   4    -42.4143607  0.546582E-03  0.288E-01    0.73       1.0  T
   5    -42.4176213 -0.326060E-02  0.672E-02    0.71       1.0  T
   6    -42.4176271 -0.581448E-05  0.600E-02    0.68       1.0  T
   7    -42.4177755 -0.148382E-03  0.158E-02    0.70       1.3  T
   8    -42.4177805 -0.501366E-05  0.509E-03    0.70       3.9  T
   9    -42.4177807 -0.118453E-06  0.204E-03    0.70       9.8  T
  10    -42.4177808 -0.999542E-07  0.586E-04    0.70      34.1  T
  11    -42.4177808 -0.266129E-08  0.190E-04    0.70     105.3  T
     SCC iter.                  ...        0 min,  0.013 sec
     gradient                   ...        0 min,  0.011 sec
 * total energy  :   -59.4860412 Eh     change       -0.1559618E-01 Eh
   gradient norm :     0.3135851 Eh/α   predicted    -0.1374611E-01 ( -11.86%)
   displ. norm   :     0.4771659 α      lambda       -0.1657363E-01
   maximum displ.:     0.2359017 α      in ANC's #20, #15, #18, ...

........................................................................
.............................. CYCLE   29 ..............................
........................................................................

 iter      E             dE          RMSdq      gap      omega  full diag
   1    -42.4331187 -0.424331E+02  0.474E-01    0.81       0.0  T
   2    -42.4271979  0.592083E-02  0.527E-01    0.75       1.0  T
   3    -42.4338577 -0.665980E-02  0.259E-01    0.80       1.0  T
   4    -42.4299251  0.393262E-02  0.334E-01    0.80       1.0  T
   5    -42.4354004 -0.547537E-02  0.385E-02    0.82       1.0  T
   6    -42.4353526  0.478183E-04  0.441E-02    0.80       1.0  T
   7    -42.4354277 -0.750550E-04  0.190E-02    0.82       1.1  T
   8    -42.4354365 -0.880956E-05  0.395E-03    0.81       5.1  T
   9    -42.4354366 -0.139922E-06  0.218E-03    0.81       9.2  T
  10    -42.4354367 -0.895557E-07  0.444E-04    0.81      45.1  T
  11    -42.4354367 -0.203732E-08  0.214E-04    0.81      93.5  T
     SCC iter.                  ...        0 min,  0.013 sec
     gradient                   ...        0 min,  0.011 sec
 * total energy  :   -59.4988606 Eh     change       -0.1281941E-01 Eh
   gradient norm :     0.3686980 Eh/α   predicted    -0.1017363E-01 ( -20.64%)
   displ. norm   :     0.5267920 α      lambda       -0.2088852E-01
   maximum displ.:     0.1998024 α      in ANC's #15, #6, #20, ...

........................................................................
.............................. CYCLE   30 ..............................
........................................................................

 iter      E             dE          RMSdq      gap      omega  full diag
   1    -42.4445207 -0.424445E+02  0.475E-01    0.93       0.0  T
   2    -42.4367641  0.775653E-02  0.559E-01    0.72       1.0  T
   3    -42.4451966 -0.843250E-02  0.282E-01    0.95       1.0  T
   4    -42.4455114 -0.314768E-03  0.216E-01    0.84       1.0  T
   5    -42.4469527 -0.144127E-02  0.896E-02    0.89       1.0  T
   6    -42.4471290 -0.176284E-03  0.548E-02    0.88       1.0  T
   7    -42.4472562 -0.127256E-03  0.148E-02    0.87       1.4  T
   8    -42.4472615 -0.524009E-05  0.452E-03    0.87       4.4  T
   9    -42.4472618 -0.279517E-06  0.151E-03    0.88      13.2  T
  10    -42.4472618 -0.221480E-07  0.602E-04    0.87      33.2  T
  11    -42.4472618 -0.319054E-08  0.147E-04    0.87     135.8  T
     SCC iter.                  ...        0 min,  0.013 sec
     gradient                   ...        0 min,  0.011 sec
 * total energy  :   -59.5094601 Eh     change       -0.1059955E-01 Eh
   gradient norm :     0.2025292 Eh/α   predicted    -0.1334265E-01 (  25.88%)
   displ. norm   :     0.6539788 α      lambda       -0.2075713E-01
   maximum displ.:     0.3442263 α      in ANC's #6, #19, #12, ...

........................................................................
.............................. CYCLE   31 ..............................
........................................................................

 iter      E             dE          RMSdq      gap      omega  full diag
   1    -42.4053201 -0.424053E+02  0.934E-01    0.98       0.0  T
   2    -42.3979891  0.733099E-02  0.808E-01    0.85       1.0  T
   3    -42.3892186  0.877054E-02  0.698E-01    0.95       1.0  T
   4    -42.4063958 -0.171772E-01  0.391E-01    0.98       1.0  T
   5    -42.4092017 -0.280593E-02  0.191E-01    0.96       1.0  T
   6    -42.4104427 -0.124095E-02  0.685E-02    1.01       1.0  T
   7    -42.4104438 -0.113300E-05  0.541E-02    0.98       1.0  T
   8    -42.4104818 -0.380065E-04  0.388E-02    1.00       1.0  T
   9    -42.4105294 -0.476520E-04  0.597E-03    0.99       3.3  T
  10    -42.4105302 -0.779408E-06  0.245E-03    0.99       8.2  T
  11    -42.4105302 -0.163578E-07  0.760E-04    0.99      26.3  T
  12    -42.4105302 -0.104256E-07  0.222E-04    0.99      90.1  T
     SCC iter.                  ...        0 min,  0.015 sec
     gradient                   ...        0 min,  0.011 sec
 * total energy  :   -59.5057329 Eh     change        0.3727178E-02 Eh
   gradient norm :     0.1375491 Eh/α   predicted    -0.1481736E-01 (-497.55%)
   displ. norm   :     0.3053156 α      lambda       -0.2251511E-01
   maximum displ.:     0.1707592 α      in ANC's #12, #19, #7, ...

........................................................................
.............................. CYCLE   32 ..............................
........................................................................

 iter      E             dE          RMSdq      gap      omega  full diag
   1    -42.4460218 -0.424460E+02  0.540E-01    1.01       0.0  T
   2    -42.4444704  0.155136E-02  0.489E-01    0.90       1.0  T
   3    -42.4451098 -0.639383E-03  0.320E-01    1.01       1.0  T
   4    -42.4470289 -0.191904E-02  0.258E-01    0.96       1.0  T
   5    -42.4478312 -0.802335E-03  0.152E-01    0.93       1.0  T
   6    -42.4487289 -0.897724E-03  0.383E-02    0.98       1.0  T
   7    -42.4487487 -0.198173E-04  0.272E-02    0.97       1.0  T
   8    -42.4487615 -0.127244E-04  0.160E-02    0.98       1.2  T
   9    -42.4487683 -0.681726E-05  0.209E-03    0.98       9.6  T
  10    -42.4487684 -0.133628E-06  0.791E-04    0.98      25.3  T
  11    -42.4487684 -0.221163E-08  0.332E-04    0.98      60.3  T
     SCC iter.                  ...        0 min,  0.013 sec
     gradient                   ...        0 min,  0.011 sec
 * total energy  :   -59.5170294 Eh     change       -0.1129648E-01 Eh
   gradient norm :     0.4198554 Eh/α   predicted    -0.1230696E-01 (   8.95%)
   displ. norm   :     0.2799196 α      lambda       -0.1180279E-01
   maximum displ.:     0.1049958 α      in ANC's #4, #6, #7, ...

........................................................................
.............................. CYCLE   33 ..............................
........................................................................

 iter      E             dE          RMSdq      gap      omega  full diag
   1    -42.4532206 -0.424532E+02  0.300E-01    0.88       0.0  T
   2    -42.4482624  0.495813E-02  0.419E-01    1.08       1.0  T
   3    -42.4542259 -0.596341E-02  0.141E-01    0.91       1.0  T
   4    -42.4542074  0.184200E-04  0.862E-02    0.94       1.0  T
   5    -42.4543740 -0.166532E-03  0.474E-02    0.94       1.0  T
   6    -42.4544815 -0.107574E-03  0.129E-02    0.94       1.6  T
   7    -42.4544836 -0.210648E-05  0.686E-03    0.94       2.9  T
   8    -42.4544844 -0.769764E-06  0.446E-03    0.94       4.5  T
   9    -42.4544850 -0.603618E-06  0.114E-03    0.94      17.6  T
  10    -42.4544850 -0.527636E-08  0.362E-04    0.94      55.3  T
  11    -42.4544850 -0.146518E-08  0.899E-05    0.94     222.4  T
     SCC iter.                  ...        0 min,  0.013 sec
     gradient                   ...        0 min,  0.011 sec
 * total energy  :   -59.5174985 Eh     change       -0.4690532E-03 Eh
   gradient norm :     0.4221900 Eh/α   predicted    -0.6363795E-02 (1256.73%)
   displ. norm   :     0.2955570 α      lambda       -0.8897278E-02
   maximum displ.:     0.1599558 α      in ANC's #7, #6, #4, ...

........................................................................
.............................. CYCLE   34 ..............................
........................................................................

 iter      E             dE          RMSdq      gap      omega  full diag
   1    -42.4588254 -0.424588E+02  0.264E-01    0.97       0.0  T
   2    -42.4581462  0.679159E-03  0.228E-01    1.06       1.0  T
   3    -42.4582540 -0.107816E-03  0.171E-01    0.94       1.0  T
   4    -42.4589558 -0.701761E-03  0.824E-02    1.02       1.0  T
   5    -42.4591346 -0.178757E-03  0.368E-02    0.99       1.0  T
   6    -42.4591764 -0.418759E-04  0.114E-02    1.00       1.8  T
   7    -42.4591783 -0.182310E-05  0.107E-02    1.00       1.9  T
   8    -42.4591815 -0.326726E-05  0.287E-03    1.00       7.0  T
   9    -42.4591817 -0.136593E-06  0.770E-04    1.00      26.0  T
  10    -42.4591817 -0.277799E-08  0.285E-04    1.00      70.2  T
     SCC iter.                  ...        0 min,  0.012 sec
     gradient                   ...        0 min,  0.011 sec
 * total energy  :   -59.5235817 Eh     change       -0.6083265E-02 Eh
   gradient norm :     0.0581324 Eh/α   predicted    -0.4837281E-02 ( -20.48%)
   displ. norm   :     0.6104595 α      lambda       -0.9431922E-02
   maximum displ.:     0.3439940 α      in ANC's #6, #7, #4, ...

........................................................................
.............................. CYCLE   35 ..............................
........................................................................

 iter      E             dE          RMSdq      gap      omega  full diag
   1    -42.4433539 -0.424434E+02  0.453E-01    1.13       0.0  T
   2    -42.4424408  0.913091E-03  0.349E-01    1.10       1.0  T
   3    -42.4412149  0.122586E-02  0.304E-01    1.12       1.0  T
   4    -42.4435610 -0.234608E-02  0.118E-01    1.12       1.0  T
   5    -42.4439123 -0.351285E-03  0.573E-02    1.12       1.0  T
   6    -42.4440595 -0.147224E-03  0.191E-02    1.12       1.0  T
   7    -42.4440640 -0.446641E-05  0.768E-03    1.12       2.6  T
   8    -42.4440647 -0.708327E-06  0.515E-03    1.12       3.9  T
   9    -42.4440657 -0.101143E-05  0.175E-03    1.12      11.4  T
  10    -42.4440657 -0.644147E-07  0.634E-04    1.12      31.5  T
  11    -42.4440657 -0.267299E-08  0.210E-04    1.12      95.1  T
     SCC iter.                  ...        0 min,  0.013 sec
     gradient                   ...        0 min,  0.011 sec
 * total energy  :   -59.5250450 Eh     change       -0.1463214E-02 Eh
   gradient norm :     0.4265750 Eh/α   predicted    -0.6473451E-02 ( 342.41%)
   displ. norm   :     0.3809317 α      lambda       -0.1109392E-01
   maximum displ.:     0.2367658 α      in ANC's #7, #6, #11, ...

........................................................................
.............................. CYCLE   36 ..............................
........................................................................

 iter      E             dE          RMSdq      gap      omega  full diag
   1    -42.4620072 -0.424620E+02  0.349E-01    0.98       0.0  T
   2    -42.4553931  0.661405E-02  0.529E-01    1.38       1.0  T
   3    -42.4649054 -0.951226E-02  0.134E-01    1.13       1.0  T
   4    -42.4646953  0.210075E-03  0.847E-02    1.12       1.0  T
   5    -42.4648243 -0.128981E-03  0.483E-02    1.12       1.0  T
   6    -42.4649270 -0.102739E-03  0.116E-02    1.13       1.7  T
   7    -42.4649284 -0.135720E-05  0.811E-03    1.12       2.5  T
   8    -42.4649297 -0.132061E-05  0.418E-03    1.13       4.8  T
   9    -42.4649301 -0.434606E-06  0.132E-03    1.12      15.1  T
  10    -42.4649302 -0.406911E-07  0.481E-04    1.12      41.6  T
  11    -42.4649302 -0.134052E-08  0.147E-04    1.12     136.4  T
     SCC iter.                  ...        0 min,  0.013 sec
     gradient                   ...        0 min,  0.011 sec
 * total energy  :   -59.5338151 Eh     change       -0.8770166E-02 Eh
   gradient norm :     0.3309006 Eh/α   predicted    -0.6351884E-02 ( -27.57%)
   displ. norm   :     0.6142035 α      lambda       -0.1632037E-01
   maximum displ.:     0.3756752 α      in ANC's #7, #11, #14, ...

........................................................................
.............................. CYCLE   37 ..............................
........................................................................

 iter      E             dE          RMSdq      gap      omega  full diag
   1    -42.4955681 -0.424956E+02  0.527E-01    0.87       0.0  T
   2    -42.4868159  0.875222E-02  0.682E-01    1.42       1.0  T
   3    -42.5009873 -0.141714E-01  0.183E-01    1.07       1.0  T
   4    -42.5005271  0.460137E-03  0.146E-01    1.08       1.0  T
   5    -42.5010501 -0.522966E-03  0.365E-02    1.07       1.0  T
   6    -42.5010837 -0.336194E-04  0.126E-02    1.07       1.6  T
   7    -42.5010842 -0.524995E-06  0.726E-03    1.08       2.8  T
   8    -42.5010832  0.101082E-05  0.806E-03    1.08       2.5  T
   9    -42.5010857 -0.244028E-05  0.144E-03    1.08      13.9  T
  10    -42.5010857 -0.330359E-07  0.658E-04    1.08      30.4  T
  11    -42.5010857 -0.411188E-08  0.181E-04    1.08     110.7  T
     SCC iter.                  ...        0 min,  0.013 sec
     gradient                   ...        0 min,  0.011 sec
 * total energy  :   -59.5469793 Eh     change       -0.1316419E-01 Eh
   gradient norm :     0.0949973 Eh/α   predicted    -0.1123857E-01 ( -14.63%)
   displ. norm   :     0.7767070 α      lambda       -0.2063820E-01
   maximum displ.:     0.4916516 α      in ANC's #7, #6, #14, ...

........................................................................
.............................. CYCLE   38 ..............................
........................................................................

 iter      E             dE          RMSdq      gap      omega  full diag
   1    -42.5324673 -0.425325E+02  0.638E-01    0.72       0.0  T
   2    -42.5284267  0.404066E-02  0.571E-01    1.21       1.0  T
   3    -42.5355890 -0.716236E-02  0.293E-01    0.83       1.0  T
   4    -42.5363800 -0.791007E-03  0.199E-01    0.96       1.0  T
   5    -42.5372961 -0.916062E-03  0.525E-02    0.93       1.0  T
   6    -42.5373254 -0.293397E-04  0.332E-02    0.93       1.0  T
   7    -42.5373638 -0.383625E-04  0.949E-03    0.93       2.1  T
   8    -42.5373648 -0.979333E-06  0.435E-03    0.93       4.6  T
   9    -42.5373650 -0.202446E-06  0.156E-03    0.93      12.8  T
  10    -42.5373650 -0.541921E-07  0.558E-04    0.93      35.8  T
  11    -42.5373650 -0.110249E-08  0.173E-04    0.93     115.5  T
     SCC iter.                  ...        0 min,  0.013 sec
     gradient                   ...        0 min,  0.011 sec
 * total energy  :   -59.5657146 Eh     change       -0.1873533E-01 Eh
   gradient norm :     0.3615586 Eh/α   predicted    -0.1654432E-01 ( -11.69%)
   displ. norm   :     0.7786540 α      lambda       -0.3141288E-01
   maximum displ.:     0.4111419 α      in ANC's #7, #14, #42, ...

........................................................................
.............................. CYCLE   39 ..............................
........................................................................

 iter      E             dE          RMSdq      gap      omega  full diag
   1    -42.5776990 -0.425777E+02  0.789E-01    0.73       0.0  T
   2    -42.5802290 -0.252997E-02  0.448E-01    0.81       1.0  T
   3    -42.5804471 -0.218090E-03  0.307E-01    0.82       1.0  T
   4    -42.5806201 -0.172953E-03  0.229E-01    0.74       1.0  T
   5    -42.5819288 -0.130878E-02  0.688E-02    0.83       1.0  T
   6    -42.5820491 -0.120281E-03  0.316E-02    0.79       1.0  T
   7    -42.5820772 -0.280432E-04  0.128E-02    0.81       1.6  T
   8    -42.5820800 -0.283581E-05  0.469E-03    0.80       4.3  T
   9    -42.5820802 -0.180639E-06  0.139E-03    0.80      14.4  T
  10    -42.5820802 -0.271434E-08  0.571E-04    0.80      35.0  T
  11    -42.5820802 -0.525334E-08  0.193E-04    0.80     103.8  T
     SCC iter.                  ...        0 min,  0.013 sec
     gradient                   ...        0 min,  0.011 sec
 * total energy  :   -59.5885364 Eh     change       -0.2282176E-01 Eh
   gradient norm :     0.6691965 Eh/α   predicted    -0.2522928E-01 (  10.55%)
   displ. norm   :     0.7111865 α      lambda       -0.3582254E-01
   maximum displ.:     0.4095600 α      in ANC's #7, #6, #14, ...

........................................................................
.............................. CYCLE   40 ..............................
........................................................................

 iter      E             dE          RMSdq      gap      omega  full diag
   1    -42.5834295 -0.425834E+02  0.729E-01    0.51       0.0  T
   2    -42.5878941 -0.446461E-02  0.364E-01    0.74       1.0  T
   3    -42.5876813  0.212757E-03  0.372E-01    0.55       1.0  T
   4    -42.5900423 -0.236095E-02  0.165E-01    0.68       1.0  T
   5    -42.5905062 -0.463964E-03  0.107E-01    0.62       1.0  T
   6    -42.5906857 -0.179445E-03  0.339E-02    0.65       1.0  T
   7    -42.5907222 -0.364900E-04  0.131E-02    0.64       1.5  T
   8    -42.5907264 -0.422249E-05  0.511E-03    0.64       3.9  T
   9    -42.5907265 -0.105516E-06  0.209E-03    0.65       9.6  T
  10    -42.5907266 -0.860737E-07  0.660E-04    0.64      30.3  T
  11    -42.5907266 -0.103787E-08  0.258E-04    0.64      77.5  T
     SCC iter.                  ...        0 min,  0.013 sec
     gradient                   ...        0 min,  0.011 sec
 * total energy  :   -59.6195191 Eh     change       -0.3098267E-01 Eh
   gradient norm :     0.3202452 Eh/α   predicted    -0.2697053E-01 ( -12.95%)
   displ. norm   :     0.4994101 α      lambda       -0.4412441E-01
   maximum displ.:     0.1997381 α      in ANC's #7, #18, #14, ...

........................................................................
.............................. CYCLE   41 ..............................
........................................................................

 iter      E             dE          RMSdq      gap      omega  full diag
   1    -42.5613599 -0.425614E+02  0.693E-01    0.53       0.0  T
   2    -42.5607849  0.574954E-03  0.582E-01    0.55       1.0  T
   3    -42.5667060 -0.592107E-02  0.394E-01    0.59       1.0  T
   4    -42.5708066 -0.410063E-02  0.168E-01    0.58       1.0  T
   5    -42.5708026  0.398935E-05  0.113E-01    0.53       1.0  T
   6    -42.5710806 -0.277942E-03  0.498E-02    0.60       1.0  T
   7    -42.5711824 -0.101790E-03  0.127E-02    0.57       1.6  T
   8    -42.5711852 -0.282505E-05  0.558E-03    0.57       3.6  T
   9    -42.5711857 -0.507707E-06  0.128E-03    0.57      15.6  T
  10    -42.5711857 -0.104007E-07  0.554E-04    0.57      36.1  T
  11    -42.5711857 -0.444366E-08  0.239E-04    0.57      83.6  T
     SCC iter.                  ...        0 min,  0.014 sec
     gradient                   ...        0 min,  0.011 sec
 * total energy  :   -59.6366199 Eh     change       -0.1710083E-01 Eh
   gradient norm :     0.6591402 Eh/α   predicted    -0.2756475E-01 (  61.19%)
   displ. norm   :     0.6134058 α      lambda       -0.3174242E-01
   maximum displ.:     0.4365595 α      in ANC's #7, #14, #11, ...

........................................................................
.............................. CYCLE   42 ..............................
........................................................................

 iter      E             dE          RMSdq      gap      omega  full diag
   1    -42.5763886 -0.425764E+02  0.736E-01    0.18       0.0  T
   2    -42.5427046  0.336840E-01  0.965E-01    0.85       1.0  T
   3    -42.5856514 -0.429469E-01  0.393E-01    0.26       1.0  T
   4    -42.5879474 -0.229592E-02  0.236E-01    0.28       1.0  T
   5    -42.5888039 -0.856554E-03  0.133E-01    0.34       1.0  T
   6    -42.5894534 -0.649511E-03  0.224E-02    0.34       1.0  T
   7    -42.5894663 -0.128248E-04  0.762E-03    0.34       2.6  T
   8    -42.5894666 -0.327795E-06  0.349E-03    0.34       5.7  T
   9    -42.5894666 -0.680664E-07  0.117E-03    0.34      17.0  T
  10    -42.5894667 -0.760018E-08  0.605E-04    0.34      33.0  T
  11    -42.5894667 -0.436710E-08  0.189E-04    0.34     105.8  T
     SCC iter.                  ...        0 min,  0.013 sec
     gradient                   ...        0 min,  0.011 sec
 * total energy  :   -59.6404258 Eh     change       -0.3805910E-02 Eh
   gradient norm :     0.2443118 Eh/α   predicted    -0.2184306E-01 ( 473.92%)
   displ. norm   :     0.7082332 α      lambda       -0.5196314E-01
   maximum displ.:     0.3004820 α      in ANC's #7, #14, #12, ...
 * RMSD in coord.:     1.2081587 α      energy gain  -0.2664399E+00 Eh

generating ANC from model Hessian ...
Using Lindh-Hessian (1995)
 Shifting diagonal of input Hessian by    8.6519733658357734E-003
 Lowest  eigenvalues of input Hessian
    0.000000    0.000000    0.000000    0.000000    0.000000    0.000000
    0.010000    0.011096    0.013344    0.013607    0.014173    0.015075
    0.019015    0.020933    0.022437    0.027258    0.029009    0.043253
 Highest eigenvalues
    2.154731    2.372927    2.396404    2.544200   18.151834   24.887939


........................................................................
.............................. CYCLE   43 ..............................
........................................................................

 iter      E             dE          RMSdq      gap      omega  full diag
   1    -42.5578958 -0.425579E+02  0.859E-01    0.70       0.0  T
   2    -42.5533301  0.456568E-02  0.583E-01    0.30       1.0  T
   3    -42.5544334 -0.110332E-02  0.685E-01    0.79       1.0  T
   4    -42.5654437 -0.110103E-01  0.233E-01    0.58       1.0  T
   5    -42.5660559 -0.612194E-03  0.805E-02    0.56       1.0  T
   6    -42.5661776 -0.121621E-03  0.202E-02    0.55       1.0  T
   7    -42.5661832 -0.562915E-05  0.844E-03    0.54       2.4  T
   8    -42.5661831  0.735422E-07  0.554E-03    0.54       3.6  T
   9    -42.5661840 -0.883815E-06  0.194E-03    0.54      10.3  T
  10    -42.5661841 -0.658089E-07  0.593E-04    0.54      33.8  T
  11    -42.5661841 -0.261329E-08  0.318E-04    0.54      63.0  T
     SCC iter.                  ...        0 min,  0.014 sec
     gradient                   ...        0 min,  0.011 sec
 * total energy  :   -59.6239315 Eh     change        0.1649431E-01 Eh
   gradient norm :     1.2065279 Eh/α   predicted     0.0000000E+00 (-100.00%)
   displ. norm   :     0.5197578 α      lambda       -0.5927571E+00
   maximum displ.:     0.3320486 α      in ANC's #65, #48, #47, ...

........................................................................
.............................. CYCLE   44 ..............................
........................................................................

 iter      E             dE          RMSdq      gap      omega  full diag
   1    -42.6012367 -0.426012E+02  0.592E-01    0.51       0.0  T
   2    -42.6010423  0.194405E-03  0.340E-01    0.54       1.0  T
   3    -42.5965146  0.452761E-02  0.435E-01    0.54       1.0  T
   4    -42.6023764 -0.586178E-02  0.114E-01    0.53       1.0  T
   5    -42.6025514 -0.174956E-03  0.226E-02    0.53       1.0  T
   6    -42.6025427  0.870324E-05  0.240E-02    0.54       1.0  T
   7    -42.6025512 -0.850072E-05  0.122E-02    0.53       1.6  T
   8    -42.6025562 -0.501346E-05  0.176E-03    0.54      11.4  T
   9    -42.6025563 -0.730524E-07  0.711E-04    0.54      28.1  T
  10    -42.6025563 -0.329068E-08  0.403E-04    0.54      49.6  T
     SCC iter.                  ...        0 min,  0.012 sec
     gradient                   ...        0 min,  0.011 sec
 * total energy  :   -57.4335090 Eh     change        0.2190422E+01 Eh
   gradient norm :     7.0104438 Eh/α   predicted    -0.3764483E+00 (-117.19%)
   displ. norm   :     0.3593219 α      lambda       -0.2506818E+01
   maximum displ.:     0.2888879 α      in ANC's #65, #48, #60, ...

........................................................................
.............................. CYCLE   45 ..............................
........................................................................

 iter      E             dE          RMSdq      gap      omega  full diag
   1    -42.5755401 -0.425755E+02  0.484E-01    0.68       0.0  T
   2    -42.5739824  0.155774E-02  0.360E-01    0.45       1.0  T
   3    -42.5738821  0.100327E-03  0.317E-01    0.73       1.0  T
   4    -42.5768917 -0.300960E-02  0.156E-01    0.57       1.0  T
   5    -42.5772813 -0.389630E-03  0.152E-02    0.59       1.3  T
   6    -42.5772804  0.913216E-06  0.134E-02    0.58       1.5  T
   7    -42.5772806 -0.185308E-06  0.931E-03    0.59       2.1  T
   8    -42.5772830 -0.245308E-05  0.259E-03    0.59       7.7  T
   9    -42.5772832 -0.205257E-06  0.865E-04    0.59      23.1  T
  10    -42.5772832 -0.124541E-07  0.292E-04    0.59      68.5  T
     SCC iter.                  ...        0 min,  0.012 sec
     gradient                   ...        0 min,  0.011 sec
 * total energy  :   -59.4741782 Eh     change       -0.2040669E+01 Eh
   gradient norm :     3.1912393 Eh/α   predicted    -0.1415239E+01 ( -30.65%)
   displ. norm   :     0.2867693 α      lambda       -0.8879867E+00
   maximum displ.:     0.2109186 α      in ANC's #65, #48, #60, ...

........................................................................
.............................. CYCLE   46 ..............................
........................................................................

 iter      E             dE          RMSdq      gap      omega  full diag
   1    -42.5422157 -0.425422E+02  0.351E-01    0.62       0.0  T
   2    -42.5418109  0.404789E-03  0.234E-01    0.54       1.0  T
   3    -42.5409318  0.879093E-03  0.241E-01    0.66       1.0  T
   4    -42.5423668 -0.143498E-02  0.122E-01    0.57       1.0  T
   5    -42.5427562 -0.389438E-03  0.140E-02    0.59       1.4  T
   6    -42.5427556  0.605722E-06  0.124E-02    0.58       1.6  T
   7    -42.5427552  0.435247E-06  0.925E-03    0.59       2.2  T
   8    -42.5427580 -0.283368E-05  0.168E-03    0.59      11.9  T
   9    -42.5427581 -0.539116E-07  0.761E-04    0.59      26.3  T
  10    -42.5427581 -0.112476E-07  0.222E-04    0.59      90.2  T
     SCC iter.                  ...        0 min,  0.012 sec
     gradient                   ...        0 min,  0.011 sec
 * total energy  :   -58.6878478 Eh     change        0.7863303E+00 Eh
[...]
C            2.72791795455898        0.00421873841497       -0.54176363402134
C           -0.44088268334420        0.49421664874007       -0.21872691081472
O            0.42048755980891        1.32483746645354       -0.41739465168053
N           -1.78714081212092        0.72241635767335       -0.01787832713058
C           -2.40192004040977        2.02835823463789       -0.01774286722632
C           -2.48329368826787       -0.45170765960321        0.16441684095332
O           -3.64974415823756       -0.61061745635058        0.36485132992016
N           -1.52718471840821       -1.49604898742569        0.07154825567522
C           -1.88492488754641       -2.87910631488797        0.22700338248058
H            4.44587565735175        2.00162042394282        1.29365214308215
H            5.40344036883716        1.30299392978785       -0.00491049435591
H            3.99025120982415        2.33007818424579       -0.40003172130099
H            2.67078152196530        0.19466891361236       -0.91642718296011
H           -1.60730045512639        2.77233204375969       -0.01987730821052
H           -3.02552482640437        2.15246310861106       -0.90441374969663
H           -3.02657752118724        2.14059430570168        0.86808328136302
H           -1.37208418443105       -3.32135073335043        1.08355401141162
H           -1.65670638826256       -3.44751605726702       -0.67680785218371
H           -2.96072271694006       -2.91385577314567        0.40272923411454
H            0.74634898806288       -2.69399826142798       -0.27384527711542

 Bond Distances (Angstroems)
 ---------------------------
C1-N2=1.3939         C1-H15=1.0941        C1-H16=1.0965        C1-H17=1.0966        N2-C1=1.3939         N2-C6=1.3247         
C3-N4=1.2953         C3-C6=1.3986         N4-C3=1.2953         N4-C5=1.3658         N4-H25=1.0242        C5-N4=1.3658         
C5-C7=1.4640         C5-N13=1.3483        C6-N2=1.3247         C6-C3=1.3986         C6-H18=0.4242        C7-C5=1.4640         
C7-O8=1.2130         C7-N9=1.3802         O8-C7=1.2130         N9-C7=1.3802         N9-C10=1.4434        N9-C11=1.3771        
C10-N9=1.4434        C10-H19=1.0885       C10-H20=1.0911       C10-H21=1.0897       C11-N9=1.3771        C11-O12=1.1942       
C11-N13=1.4189       O12-C11=1.1942       N13-C5=1.3483        N13-C11=1.4189       N13-C14=1.4370       C14-N13=1.4370       
C14-H22=1.0919       C14-H23=1.0918       C14-H24=1.0906       H15-C1=1.0941        H16-C1=1.0965        H17-C1=1.0966        
H18-C6=0.4242        H19-C10=1.0885       H20-C10=1.0911       H21-C10=1.0897       H22-C14=1.0919       H23-C14=1.0918       
H24-C14=1.0906       H25-N4=1.0242        
 C  H  Rav=1.0255 sigma=0.2005  Rmin=0.4242  Rmax=1.0966    10
 C  C  Rav=1.4313 sigma=0.0327  Rmin=1.3986  Rmax=1.4640     2
 N  H  Rav=1.0242 sigma=0.0000  Rmin=1.0242  Rmax=1.0242     1
 N  C  Rav=1.3785 sigma=0.0452  Rmin=1.2953  Rmax=1.4434    10
 O  C  Rav=1.2036 sigma=0.0094  Rmin=1.1942  Rmax=1.2130     2

 selected bond angles (degree)
 --------------------
H15-C1-N2=108.10               H16-C1-N2=109.20               H16-C1-H15=106.76              H17-C1-N2=113.93               
H17-C1-H15=109.08              H17-C1-H16=109.51              C6-N2-C1=126.34                C6-C3-N4=140.33                
C5-N4-C3=126.24                H25-N4-C3=117.89               H25-N4-C5=115.70               C7-C5-N4=126.28                
N13-C5-N4=125.02               N13-C5-C7=108.67               C3-C6-N2=116.97                H18-C6-N2=123.43               
H18-C6-C3=119.37               O8-C7-C5=128.68                N9-C7-C5=104.21                N9-C7-O8=127.11                
C10-N9-C7=124.41               C11-N9-C7=111.80               C11-N9-C10=123.78              H19-C10-N9=107.91              
H20-C10-N9=110.26              H20-C10-H19=109.75             H21-C10-N9=109.72              H21-C10-H19=110.47             
H21-C10-H20=108.74             

 selected dihedral angles (degree)
 ---------------------------------
C6-N2-C1-H15=141.85           C6-N2-C1-H16=257.64           C6-N2-C1-H17= 20.43           C5-N4-C3-C6=336.73            
H25-N4-C3-C6=161.68           C7-C5-N4-C3=  9.92            C7-C5-N4-H25=185.05           N13-C5-N4-C3=191.60           
N13-C5-N4-H25=  6.74          C3-C6-N2-C1=180.16            H18-C6-N2-C1=  5.79           N2-C6-C3-N4=131.87            
H18-C6-C3-N4=306.47           O8-C7-C5-N4=  2.24            O8-C7-C5-N13=180.79           N9-C7-C5-N4=181.55            
N9-C7-C5-N13=  0.10           C10-N9-C7-C5=180.92           C10-N9-C7-O8=  0.25           C11-N9-C7-C5=  0.04           
C11-N9-C7-O8=179.37           H19-C10-N9-C7=349.96          H19-C10-N9-C11=170.95         H20-C10-N9-C7=109.82          
H20-C10-N9-C11=290.80         H21-C10-N9-C7=229.56          H21-C10-N9-C11= 50.54         
           -------------------------------------------------
          |                Final Singlepoint                |
           -------------------------------------------------

          ...................................................
          :                      SETUP                      :
          :.................................................:
          :  # basis functions                  67          :
          :  # atomic orbitals                  67          :
          :  # shells                           39          :
          :  # electrons                        74          :
          :  max. iterations                   250          :
          :  Hamiltonian                  GFN2-xTB          :
          :  restarted?                      false          :
          :  GBSA solvation                  false          :
          :  PC potential                    false          :
          :  electronic temp.         5000.0000000     K    :
          :  accuracy                    1.0000000          :
          :  -> integral cutoff          0.2500000E+02      :
          :  -> integral neglect         0.1000000E-07      :
          :  -> SCF convergence          0.1000000E-05 Eh   :
          :  -> wf. convergence          0.1000000E-03 e    :
          :  Broyden damping             0.4000000          :
          ...................................................

 iter      E             dE          RMSdq      gap      omega  full diag
   1    -42.6440348 -0.426440E+02  0.186E-04    0.26       0.0  T
   2    -42.6440348  0.468871E-08  0.371E-04    0.26      53.9  T
   3    -42.6440348 -0.620582E-08  0.294E-05    0.26     680.1  T

   *** convergence criteria satisfied after 3 iterations ***

         #    Occupation            Energy/Eh            Energy/eV
      -------------------------------------------------------------
         1        2.0000           -0.8942345             -24.3334
       ...           ...                  ...                  ...
        31        1.9973           -0.6140021             -16.7078
        32        1.9958           -0.6073581             -16.5271
        33        1.9881           -0.5907284             -16.0745
        34        1.9618           -0.5720059             -15.5651
        35        1.9492           -0.5673766             -15.4391
        36        1.7708           -0.5420039             -14.7487
        37        1.2998           -0.5194284             -14.1344 (HOMO)
        38        1.0063           -0.5098329             -13.8733 (LUMO)
        39        0.0350           -0.4458531             -12.1323
        40        0.0008           -0.3861808             -10.5085
        41        0.0001           -0.3496418              -9.5142
        42        0.0000           -0.3293540              -8.9622
       ...           ...                  ...                  ...
        67                         10.4842433             285.2908
      -------------------------------------------------------------
                  HL-Gap            0.0095955 Eh            0.2611 eV
             Fermi-level           -0.5096329 Eh          -13.8678 eV

 SCC (total)                   0 d,  0 h,  0 min,  0.020 sec
 SCC setup                      ...        0 min,  0.000 sec (  0.914%)
 Dispersion                     ...        0 min,  0.000 sec (  0.837%)
 classical contributions        ...        0 min,  0.000 sec (  0.330%)
 integral evaluation            ...        0 min,  0.004 sec ( 20.474%)
 iterations                     ...        0 min,  0.004 sec ( 21.405%)
 molecular gradient             ...        0 min,  0.011 sec ( 55.398%)
 printout                       ...        0 min,  0.000 sec (  0.608%)

         :::::::::::::::::::::::::::::::::::::::::::::::::::::
         ::                     SUMMARY                     ::
         :::::::::::::::::::::::::::::::::::::::::::::::::::::
         :: total energy             -59.691334151548 Eh    ::
         :: gradient norm              0.003455244663 Eh/a0 ::
         :: HOMO-LUMO gap              0.261106713768 eV    ::
         ::.................................................::
         :: SCC energy               -42.644034796115 Eh    ::
         :: -> isotropic ES            0.134971168286 Eh    ::
         :: -> anisotropic ES         -0.006326634052 Eh    ::
         :: -> anisotropic XC          0.014313851040 Eh    ::
         :: -> dispersion             -0.020387083156 Eh    ::
         :: repulsion energy           2.269745271392 Eh    ::
         :: add. restraining         -19.317069846598 Eh    ::
         :: total charge               1.000000000060 e     ::
         :::::::::::::::::::::::::::::::::::::::::::::::::::::

           -------------------------------------------------
          |                Property Printout                |
           -------------------------------------------------

    * Orbital Energies and Occupations

         #    Occupation            Energy/Eh            Energy/eV
      -------------------------------------------------------------
         1        2.0000           -0.8942345             -24.3334
       ...           ...                  ...                  ...
        25        1.9999           -0.6713260             -18.2677
        26        1.9999           -0.6687234             -18.1969
        27        1.9995           -0.6417695             -17.4634
        28        1.9993           -0.6367212             -17.3261
        29        1.9990           -0.6296640             -17.1340
        30        1.9975           -0.6154926             -16.7484
        31        1.9973           -0.6140021             -16.7078
        32        1.9958           -0.6073581             -16.5271
        33        1.9881           -0.5907284             -16.0745
        34        1.9618           -0.5720059             -15.5651
        35        1.9492           -0.5673766             -15.4391
        36        1.7708           -0.5420039             -14.7487
        37        1.2998           -0.5194284             -14.1344 (HOMO)
        38        1.0063           -0.5098329             -13.8733 (LUMO)
        39        0.0350           -0.4458531             -12.1323
        40        0.0008           -0.3861808             -10.5085
        41        0.0001           -0.3496418              -9.5142
        42        0.0000           -0.3293540              -8.9622
        43                         -0.1898359              -5.1657
        44                         -0.1819155              -4.9502
        45                         -0.1202357              -3.2718
        46                         -0.0626584              -1.7050
        47                         -0.0563614              -1.5337
        48                         -0.0279704              -0.7611
       ...                                ...                  ...
        67                         10.4842433             285.2908
      -------------------------------------------------------------
                  HL-Gap            0.0095955 Eh            0.2611 eV
             Fermi-level           -0.5096329 Eh          -13.8678 eV

     #   Z          covCN         q      C6AA      α(0)
     1   6 C        3.692    -0.051    21.670     6.661
     2   7 N        1.874    -0.106    24.095     7.276
     3   6 C        1.978     0.002    31.021     8.995
     4   7 N        2.683     0.013    21.028     6.811
     5   6 C        2.959     0.060    26.646     8.467
     6   6 C        2.833     0.022    27.511     8.595
     7   6 C        2.843     0.258    22.665     7.802
     8   8 O        0.857    -0.368    21.045     6.151
     9   7 N        2.803    -0.078    22.750     7.084
    10   6 C        3.690    -0.058    21.807     6.683
    11   6 C        2.834     0.316    21.637     7.623
    12   8 O        0.857    -0.322    20.190     6.024
    13   7 N        2.786    -0.044    22.091     6.981
    14   6 C        3.688    -0.072    22.079     6.725
    15   1 H        0.924     0.122     1.594     1.975
    16   1 H        0.924     0.123     1.590     1.972
    17   1 H        0.924     0.099     1.795     2.095
    18   1 H        1.012     0.216     1.019     1.577
    19   1 H        0.925     0.109     1.709     2.044
    20   1 H        0.924     0.101     1.776     2.084
    21   1 H        0.925     0.104     1.750     2.069
    22   1 H        0.924     0.093     1.851     2.128
    23   1 H        0.924     0.092     1.856     2.130
    24   1 H        0.924     0.126     1.562     1.954
    25   1 H        0.859     0.243     0.912     1.496

 Mol. C6AA /au·bohr⁶  :       6568.065276
 Mol. C8AA /au·bohr⁸  :     151217.264355
 Mol. α(0) /au        :        123.401843


Wiberg/Mayer (AO) data.
largest (>0.10) Wiberg bond orders for each atom

 ---------------------------------------------------------------------------
     #   Z sym  total        # sym  WBO       # sym  WBO       # sym  WBO
 ---------------------------------------------------------------------------
     1   6 C    3.889 --     2 N    1.100    17 H    0.927    15 H    0.919
                            16 H    0.904
     2   7 N    2.764 --     6 C    1.506     1 C    1.100
     3   6 C    3.109 --     4 N    1.466     6 C    1.383
     4   7 N    3.651 --     3 C    1.466     5 C    1.156    25 H    0.888
     5   6 C    3.659 --    13 N    1.248     4 N    1.156     7 C    1.046
     6   6 C    3.884 --     2 N    1.506     3 C    1.383    18 H    0.873
     7   6 C    3.916 --     8 O    1.646     9 N    1.122     5 C    1.046
     8   8 O    1.932 --     7 C    1.646     9 N    0.134
     9   7 N    3.534 --     7 C    1.122    11 C    1.113    10 C    0.978
                             8 O    0.134    12 O    0.120
    10   6 C    3.906 --     9 N    0.978    19 H    0.970    21 H    0.961
                            20 H    0.957
    11   6 C    3.924 --    12 O    1.721     9 N    1.113    13 N    1.007
    12   8 O    2.008 --    11 C    1.721     9 N    0.120
    13   7 N    3.461 --     5 C    1.248    11 C    1.007    14 C    0.989
    14   6 C    3.921 --    13 N    0.989    24 H    0.964    22 H    0.960
                            23 H    0.960
    15   1 H    0.944 --     1 C    0.919
    16   1 H    0.937 --     1 C    0.904
    17   1 H    0.938 --     1 C    0.927
    18   1 H    0.925 --     6 C    0.873
    19   1 H    0.984 --    10 C    0.970
    20   1 H    0.976 --    10 C    0.957
    21   1 H    0.979 --    10 C    0.961
    22   1 H    0.979 --    14 C    0.960
    23   1 H    0.978 --    14 C    0.960
    24   1 H    0.983 --    14 C    0.964
    25   1 H    0.923 --     4 N    0.888
 ---------------------------------------------------------------------------

Topologies differ in total number of bonds
Writing topology from bond orders to xtbtopo.mol

molecular dipole:
                 x           y           z       tot (Debye)
 q only:        1.820      -1.215      -0.234
   full:        1.740      -1.317      -0.400       5.638
molecular quadrupole (traceless):
                xx          xy          yy          xz          yz          zz
 q only:       14.244       7.921       8.056      -0.153       1.835     -22.301
  q+dip:        9.733       8.938       9.316      -0.791       2.247     -19.050
   full:        8.690       8.362       8.890      -0.616       2.466     -17.579

           -------------------------------------------------
          |                Geometry Summary                 |
           -------------------------------------------------

      molecular mass/u    :      195.1988581
   center of mass at/Å    :       -0.0632101      -0.1696244      -0.0230814
  moments of inertia/u·Å² :        0.3773844E+03   0.1204824E+04   0.1541474E+04
rotational constants/cm⁻¹ :        0.4466966E-01   0.1399178E-01   0.1093605E-01

 * 23 selected distances

     #   Z          #   Z                                           value/Å
     1   6 C        2   7 N                                       1.3938878
     3   6 C        4   7 N                                       1.2952724
     4   7 N        5   6 C                                       1.3657774
     2   7 N        6   6 C                                       1.3247041
     7   6 C        8   8 O                                       1.2129958
     7   6 C        9   7 N                                       1.3801545
     9   7 N       10   6 C                                       1.4434120 (max)
     9   7 N       11   6 C                                       1.3771085
    11   6 C       12   8 O                                       1.1941663
     5   6 C       13   7 N                                       1.3483409
    11   6 C       13   7 N                                       1.4189497
    13   7 N       14   6 C                                       1.4370081
     1   6 C       15   1 H                                       1.0941005
     1   6 C       16   1 H                                       1.0965014
     1   6 C       17   1 H                                       1.0966058
     6   6 C       18   1 H                                       0.4241564 (min)
    10   6 C       19   1 H                                       1.0885413
    10   6 C       20   1 H                                       1.0910868
    10   6 C       21   1 H                                       1.0897165
    14   6 C       22   1 H                                       1.0919088
    14   6 C       23   1 H                                       1.0918096
    14   6 C       24   1 H                                       1.0906091
     4   7 N       25   1 H                                       1.0242339

 * 4 distinct bonds (by element types)

   Z      Z             #   av. dist./Å        max./Å        min./Å
   1 H    6 C          10     1.0255036     1.0966058     0.4241564
   1 H    7 N           1     1.0242339     1.0242339     1.0242339
   6 C    7 N          10     1.3784615     1.4434120     1.2952724
   6 C    8 O           2     1.2035811     1.2129958     1.1941663


optimized geometry written to: xtbopt.xyz


           -------------------------------------------------
          | TOTAL ENERGY              -59.691334151548 Eh   |
          | GRADIENT NORM               0.003455244663 Eh/α |
          | HOMO-LUMO GAP               0.261106713768 eV   |
           -------------------------------------------------

------------------------------------------------------------------------
 * finished run on 2024/06/05 at 19:58:33.335     
------------------------------------------------------------------------
 total:
 * wall-time:     0 d,  0 h,  0 min,  2.128 sec
 *  cpu-time:     0 d,  0 h,  0 min,  2.106 sec
 * ratio c/w:     0.989 speedup
 SCF:
 * wall-time:     0 d,  0 h,  0 min,  0.033 sec
 *  cpu-time:     0 d,  0 h,  0 min,  0.033 sec
 * ratio c/w:     1.000 speedup
 ANC optimizer:
 * wall-time:     0 d,  0 h,  0 min,  2.066 sec
 *  cpu-time:     0 d,  0 h,  0 min,  2.061 sec
 * ratio c/w:     0.998 speedup

