72
 energy: -99.380394904982 gnorm: 0.003011165837 xtb: 6.6.1 (8d0f1dd)
N           -2.28697738174435        2.72662468530279        1.61407218205871
C           -1.99252173729987        2.69467882214913        0.28178869191975
C           -2.35039450553967        1.73193455135284       -0.59591170610571
C           -3.10776409074104        0.54215203783438       -0.19721261008611
C           -4.15698851872762        0.06023885420686       -0.98875093247498
C           -4.88049868273209       -1.06100876633204       -0.62638147085393
O           -5.91509192964589       -1.58095517403047       -1.32312619148033
C           -6.35380372411939       -0.92438336480349       -2.48907663254603
C           -4.54766109339984       -1.75563410900843        0.56818759825662
O           -5.30575988121274       -2.83896383254564        0.83854121823264
C           -5.07050377394151       -3.55977193369148        2.02468788950265
C           -3.49960133091673       -1.28434738995632        1.34431673698529
C           -2.79019311182402       -0.15327382804790        0.96820022530475
C           -1.96383620684797        1.86287762677701       -2.04275885336574
C           -1.03515049506423        0.70890140566470       -2.49519244353377
C            0.27616378147746        0.79399120823951       -1.82604065495683
N            0.78718172842220       -0.09928087539745       -0.99244885971718
C            2.13532039674986        0.06031941505721       -0.50156898997465
C            3.14638850692197       -0.71846343182882       -1.36617421295977
C            4.55070637727106       -0.43342643940783       -0.91337478865084
C            5.17924035841010        0.74397737837669       -1.28474394451446
C            6.46526514787931        1.02904405708673       -0.85363314174727
C            7.15058136852094        0.13834423631425       -0.04060994040478
O            8.39925834776117        0.31104780084271        0.43591833259673
C            9.10181189881167        1.48649440369260        0.10476789005058
C            6.51683793556512       -1.07514926330200        0.34060928065446
O            7.25843379178173       -1.88933636419826        1.12003098440365
C            6.73447357922795       -3.13753221413975        1.50493841011002
C            5.22728030595279       -1.33483952129824       -0.09592893526164
C            0.12608296734702       -1.35006406472148       -0.70827639114570
C           -5.58563524139045        3.02021201684694        1.57598611511179
C           -5.46790396606697        1.85407197257114        2.18966872898159
C           -5.51933231501906        4.34623536360221        2.25221632463189
H           -4.42893942248410        0.59889582668036       -1.88060397053820
H           -6.67787419481240        0.09872470859887       -2.27470157462642
H           -7.20318218424393       -1.50232145233596       -2.84807668580646
H           -5.57507294319095       -0.90929446056200       -3.25985191765502
H           -5.23098337352015       -2.93697388868202        2.91031278726845
H           -5.79353673328997       -4.37305716537610        2.02002934067620
H           -4.05838389479861       -3.97586862060455        2.04910643005806
H           -3.22686089720040       -1.79270027563739        2.25540313186905
H           -1.96651643296598        0.17570133874240        1.58275251324553
H           -2.85132272560021        1.84303413610886       -2.67683485844938
H           -1.46100369425329        2.81600169984178       -2.20811249406204
H           -1.53007401962391       -0.24276394028327       -2.31185986131972
H           -0.88061606682806        0.81760471314513       -3.57361628649882
H           -1.40364689833722        3.53128162036680       -0.07198913816075
H            0.85524302376442        1.69062314767509       -1.98399096681778
H            2.18611388544619       -0.29232199734100        0.53110461004738
H            2.39998064910541        1.11905530614855       -0.51336917865857
H            3.02278977629212       -0.40640288716357       -2.40526585118598
H            2.93938923089288       -1.78678978431445       -1.30021485800715
H            4.67258071008165        1.44733234238845       -1.92818009295338
H            6.93004681361201        1.95016486399024       -1.16456223432548
H            8.58193831302151        2.37914236282743        0.46611634573452
H            9.26107134290453        1.56760571782873       -0.97485563554227
H           10.06426455590676        1.40220989703540        0.60571077188218
H            7.51718354001049       -3.61406664209673        2.09191480121958
H            5.83806578442975       -3.02436040652855        2.12324347252617
H            6.50383284656193       -3.76117937238966        0.63551048909663
H            4.73821660529339       -2.25387047600469        0.18666332398588
H            0.07074806435116       -1.98025135367226       -1.59882717751459
H           -0.88627075717797       -1.17045630412425       -0.34074388516140
H            0.68260647264441       -1.88282817880936        0.05855701581477
H           -5.73436560222579        3.05351238018054        0.50328648273093
H           -3.06470778613445        2.15475333511654        1.91772666281846
H           -5.53079281574651        0.91824711273135        1.66008357221591
H           -5.32957543098375        1.78985108610273        3.25740650100141
H           -5.32187357185939        4.24020285238943        3.31640809696133
H           -4.74151611764904        4.96370065772633        1.79943049733371
H           -6.46221022266193        4.87659460944056        2.12394283170417
H           -2.22363873836085        3.62069175096629        2.06949192131032
