      -----------------------------------------------------------      
     |                   =====================                   |     
     |                           x T B                           |     
     |                   =====================                   |     
     |                         S. Grimme                         |     
     |          Mulliken Center for Theoretical Chemistry        |     
     |                    University of Bonn                     |     
      -----------------------------------------------------------      

   * xtb version 6.6.1 (8d0f1dd) compiled by 'conda@1efc2f54142f' on 2023-08-01

   xtb is free software: you can redistribute it and/or modify it under
   the terms of the GNU Lesser General Public License as published by
   the Free Software Foundation, either version 3 of the License, or
   (at your option) any later version.
   
   xtb is distributed in the hope that it will be useful,
   but WITHOUT ANY WARRANTY; without even the implied warranty of
   MERCHANTABILITY or FITNESS FOR A PARTICULAR PURPOSE.  See the
   GNU Lesser General Public License for more details.
   
   Cite this work as:
   * C. Bannwarth, E. Caldeweyher, S. Ehlert, A. Hansen, P. Pracht,
     J. Seibert, S. Spicher, S. Grimme, WIREs Comput. Mol. Sci., 2020, 11,
     e01493. DOI: 10.1002/wcms.1493
   
   for GFN2-xTB:
   * C. Bannwarth, S. Ehlert and S. Grimme., J. Chem. Theory Comput., 2019,
     15, 1652-1671. DOI: 10.1021/acs.jctc.8b01176
   for GFN1-xTB:
   * S. Grimme, C. Bannwarth, P. Shushkov, J. Chem. Theory Comput., 2017,
     13, 1989-2009. DOI: 10.1021/acs.jctc.7b00118
   for GFN0-xTB:
   * P. Pracht, E. Caldeweyher, S. Ehlert, S. Grimme, ChemRxiv, 2019, preprint.
     DOI: 10.26434/chemrxiv.8326202.v1
   for GFN-FF:
   * S. Spicher and S. Grimme, Angew. Chem. Int. Ed., 2020, 59, 15665-15673.
     DOI: 10.1002/anie.202004239
   
   for ALPB and GBSA implicit solvation:
   * S. Ehlert, M. Stahn, S. Spicher, S. Grimme, J. Chem. Theory Comput.,
     2021, 17, 4250-4261. DOI: 10.1021/acs.jctc.1c00471
   
   for DFT-D4:
   * E. Caldeweyher, C. Bannwarth and S. Grimme, J. Chem. Phys., 2017,
     147, 034112. DOI: 10.1063/1.4993215
   * E. Caldeweyher, S. Ehlert, A. Hansen, H. Neugebauer, S. Spicher,
     C. Bannwarth and S. Grimme, J. Chem. Phys., 2019, 150, 154122.
     DOI: 10.1063/1.5090222
   * E. Caldeweyher, J.-M. Mewes, S. Ehlert and S. Grimme, Phys. Chem. Chem. Phys.
     2020, 22, 8499-8512. DOI: 10.1039/D0CP00502A
   
   for sTDA-xTB:
   * S. Grimme and C. Bannwarth, J. Chem. Phys., 2016, 145, 054103.
     DOI: 10.1063/1.4959605
   
   in the mass-spec context:
   * V. Asgeirsson, C. Bauer and S. Grimme, Chem. Sci., 2017, 8, 4879.
     DOI: 10.1039/c7sc00601b
   * J. Koopman and S. Grimme, ACS Omega 2019, 4, 12, 15120-15133.
     DOI: 10.1021/acsomega.9b02011
   
   for metadynamics refer to:
   * S. Grimme, J. Chem. Theory Comput., 2019, 155, 2847-2862
     DOI: 10.1021/acs.jctc.9b00143
   
   for SPH calculations refer to:
   * S. Spicher and S. Grimme, J. Chem. Theory Comput., 2021, 17, 1701-1714
     DOI: 10.1021/acs.jctc.0c01306
   
   with help from (in alphabetical order)
   P. Atkinson, C. Bannwarth, F. Bohle, G. Brandenburg, E. Caldeweyher
   M. Checinski, S. Dohm, S. Ehlert, S. Ehrlich, I. Gerasimov, C. Hölzer
   A. Katbashev, J. Koopman, C. Lavigne, S. Lehtola, F. März, M. Müller,
   F. Musil, H. Neugebauer, J. Pisarek, C. Plett, P. Pracht, F. Pultar,
   J. Seibert, P. Shushkov, S. Spicher, M. Stahn, M. Steiner, T. Strunk,
   J. Stückrath, T. Rose, and J. Unsleber
   
 * started run on 2024/04/06 at 11:12:38.387     

           -------------------------------------------------
          |                Calculation Setup                |
           -------------------------------------------------

          program call               : xtb xtbopt.xyz --opt crude --input .xc2 --gfn2
          hostname                   : n-62-30-23
          coordinate file            : xtbopt.xyz
          omp threads                :                     1

   ID    Z sym.   atoms
    1    7 N      1, 17
    2    6 C      2-6, 8, 9, 11-16, 18-23, 25, 26, 28-33
    3    8 O      7, 10, 24, 27
    4    1 H      34-72

molecular fragmentation (1/2 indicates fragments):
111111111111111111111111111111111121111111111111111111111111111111111111
# atoms in fragment 1/2:    71     1
 fragment masses (1/2) :      454.60        1.01
CMA distance (Bohr)    :  17.784
constraining FC (au)   :  0.0500
########################################################################
[WARNING] Please study the warnings concerning your input carefully
-1- readin_getIntValue: could not parse ''
########################################################################

           -------------------------------------------------
          |                 G F N 2 - x T B                 |
           -------------------------------------------------

        Reference                      10.1021/acs.jctc.8b01176
      * Hamiltonian:
        H0-scaling (s, p, d)           1.850000    2.230000    2.230000
        zeta-weighting                 0.500000
      * Dispersion:
        s8                             2.700000
        a1                             0.520000
        a2                             5.000000
        s9                             5.000000
      * Repulsion:
        kExp                           1.500000    1.000000
        rExp                           1.000000
      * Coulomb:
        alpha                          2.000000
        third order                    shell-resolved
        anisotropic                    true
        a3                             3.000000
        a5                             4.000000
        cn-shift                       1.200000
        cn-exp                         4.000000
        max-rad                        5.000000

q/qsh data taken from xtbrestart
CAMM data taken from xtbrestart

          ...................................................
          :                      SETUP                      :
          :.................................................:
          :  # basis functions                 171          :
          :  # atomic orbitals                 171          :
          :  # shells                          105          :
          :  # electrons                       180          :
          :  max. iterations                   250          :
          :  Hamiltonian                  GFN2-xTB          :
          :  restarted?                       true          :
          :  GBSA solvation                  false          :
          :  PC potential                    false          :
          :  electronic temp.         5000.0000000     K    :
          :  accuracy                    1.0000000          :
          :  -> integral cutoff          0.2500000E+02      :
          :  -> integral neglect         0.1000000E-07      :
          :  -> SCF convergence          0.1000000E-05 Eh   :
          :  -> wf. convergence          0.1000000E-03 e    :
          :  Broyden damping             0.4000000          :
          ...................................................

 iter      E             dE          RMSdq      gap      omega  full diag
   1   -100.6427551 -0.100643E+03  0.445E-05    0.44       0.0  T
   2   -100.6427551  0.158188E-08  0.117E-04    0.44     100.9  T
   3   -100.6427551 -0.176848E-08  0.181E-05    0.44     650.8  T

   *** convergence criteria satisfied after 3 iterations ***

         #    Occupation            Energy/Eh            Energy/eV
      -------------------------------------------------------------
         1        2.0000           -0.8496328             -23.1197
       ...           ...                  ...                  ...
        84        1.9954           -0.5136530             -13.9772
        85        1.9953           -0.5132189             -13.9654
        86        1.9788           -0.4893677             -13.3164
        87        1.9724           -0.4851468             -13.2015
        88        1.9440           -0.4736983             -12.8900
        89        1.8448           -0.4567197             -12.4280
        90        1.1692           -0.4229360             -11.5087 (HOMO)
        91        0.6749           -0.4068422             -11.0707 (LUMO)
        92        0.4126           -0.3961916             -10.7809
        93        0.0170           -0.3421580              -9.3106
        94        0.0073           -0.3286786              -8.9438
        95        0.0047           -0.3217727              -8.7559
       ...           ...                  ...                  ...
       171                          0.5757751              15.6676
      -------------------------------------------------------------
                  HL-Gap            0.0160939 Eh            0.4379 eV
             Fermi-level           -0.4175245 Eh          -11.3614 eV

 SCC (total)                   0 d,  0 h,  0 min,  0.118 sec
 SCC setup                      ...        0 min,  0.001 sec (  0.909%)
 Dispersion                     ...        0 min,  0.002 sec (  1.444%)
 classical contributions        ...        0 min,  0.000 sec (  0.369%)
 integral evaluation            ...        0 min,  0.018 sec ( 15.369%)
 iterations                     ...        0 min,  0.027 sec ( 23.050%)
 molecular gradient             ...        0 min,  0.069 sec ( 58.313%)
 printout                       ...        0 min,  0.001 sec (  0.533%)

         :::::::::::::::::::::::::::::::::::::::::::::::::::::
         ::                     SUMMARY                     ::
         :::::::::::::::::::::::::::::::::::::::::::::::::::::
         :: total energy             -99.267888804930 Eh    ::
         :: gradient norm              0.002968987371 Eh/a0 ::
         :: HOMO-LUMO gap              0.437936179386 eV    ::
         ::.................................................::
         :: SCC energy              -100.642755128774 Eh    ::
         :: -> isotropic ES            0.106718911590 Eh    ::
         :: -> anisotropic ES          0.004011129069 Eh    ::
         :: -> anisotropic XC          0.045527039626 Eh    ::
         :: -> dispersion             -0.074826824834 Eh    ::
         :: repulsion energy           1.373670281187 Eh    ::
         :: add. restraining           0.000000000000 Eh    ::
         :: total charge               0.999999999288 e     ::
         :::::::::::::::::::::::::::::::::::::::::::::::::::::

      ----------------------------------------------------------- 
     |                   =====================                   |
     |                        A N C O P T                        |
     |                   =====================                   |
     |               Approximate Normal Coordinate               |
     |                Rational Function Optimizer                |
      ----------------------------------------------------------- 

          ...................................................
          :                      SETUP                      :
          :.................................................:
          :   optimization level             crude          :
          :   max. optcycles                   200          :
          :   ANC micro-cycles                  20          :
          :   degrees of freedom               210          :
          :.................................................:
          :   RF solver                   davidson          :
          :   write xtbopt.log                true          :
          :   linear?                        false          :
          :   energy convergence         0.5000000E-03 Eh   :
          :   grad. convergence          0.1000000E-01 Eh/α :
          :   maxmium RF displ.          1.0000000          :
          :   Hlow (freq-cutoff)         0.1000000E-01      :
          :   Hmax (freq-cutoff)         5.0000000          :
          :   S6 in model hess.         20.0000000          :
          ...................................................

generating ANC from model Hessian ...
Using Lindh-Hessian (1995)
 Shifting diagonal of input Hessian by    1.0143322113583202E-002
 Lowest  eigenvalues of input Hessian
    0.010000    0.010084    0.000000    0.000000    0.000000    0.000000
    0.000000    0.000000    0.010184    0.010197    0.010301    0.010394
    0.010466    0.010746    0.010845    0.011060    0.011087    0.011144
 Highest eigenvalues
    1.986139    2.048142    2.106394    2.109121    2.185025    2.211018


........................................................................
.............................. CYCLE    1 ..............................
........................................................................

 iter      E             dE          RMSdq      gap      omega  full diag
   1   -100.6427551 -0.100643E+03  0.116E-05    0.44       0.0  T
   2   -100.6427551  0.121361E-10  0.152E-05    0.44     777.4  T
   3   -100.6427551 -0.154472E-10  0.722E-06    0.44    1632.5  T
     SCC iter.                  ...        0 min,  0.026 sec
     gradient                   ...        0 min,  0.069 sec
 * total energy  :   -99.2678888 Eh     change       -0.1756462E-10 Eh
   gradient norm :     0.0029691 Eh/α   predicted     0.0000000E+00 (-100.00%)
   displ. norm   :     0.1070164 α      lambda       -0.1430679E-03
   maximum displ.:     0.0720721 α      in ANC's #12, #10, #1, ...

   *** GEOMETRY OPTIMIZATION CONVERGED AFTER 1 ITERATIONS ***

------------------------------------------------------------------------
 total energy gain   :        -0.0000000 Eh       -0.0000 kcal/mol
 total RMSD          :         0.0000000 a0        0.0000 Å
 total power (kW/mol):        -0.0000000 (step)   -0.0000 (real)
------------------------------------------------------------------------

 ANCopt (total)                0 d,  0 h,  0 min,  0.179 sec
 optimizer setup                ...        0 min,  0.000 sec (  0.164%)
 model hessian                  ...        0 min,  0.053 sec ( 29.535%)
 ANC generation                 ...        0 min,  0.006 sec (  3.549%)
 coordinate transformation      ...        0 min,  0.000 sec (  0.025%)
 single point calculation       ...        0 min,  0.116 sec ( 64.900%)
 optimization log               ...        0 min,  0.002 sec (  1.361%)
 hessian update                 ...        0 min,  0.000 sec (  0.001%)
 rational function              ...        0 min,  0.000 sec (  0.108%)

================
 final structure:
================
72
 xtb: 6.6.1 (8d0f1dd)
N           -1.86787671369570        2.81900136660680        2.26199597302705
C           -1.81231043797081        2.12370882007288        1.22604756190518
C           -2.96169132290979        1.91328097182729        0.27756247996484
C           -3.43210086687790        0.46921788092310        0.36040765732717
C           -4.36217079706030       -0.01227568876430       -0.55399329937523
C           -4.83573685160403       -1.32090090139826       -0.48048751656797
O           -5.75372774118249       -1.86338210213611       -1.31305658726607
C           -6.30349782531381       -1.27877314944457       -2.34199236947437
C           -4.36601092515772       -2.19272835822620        0.53955152454681
O           -4.88062662977089       -3.43537542071699        0.52718767299015
C           -4.49761449374691       -4.34649019724141        1.53350607664339
C           -3.43601634411970       -1.70133782513630        1.44284360898635
C           -2.98027036165204       -0.39210980379908        1.35464026617485
C           -2.40658246937675        2.21097663077194       -1.14042583958189
C           -1.47562503658759        1.12322578984382       -1.70714453466093
C           -0.13500155025733        1.10713710415117       -1.08011145649093
N            0.53004222526860        0.01874842994461       -0.70684989265315
C            1.91036940719689        0.10762444058354       -0.29188179847696
C            2.87899963618393       -0.34551612104702       -1.40144758371082
C            4.29825876085274       -0.14425153088740       -0.94767794591851
C            4.93836921615200        1.06663836404540       -1.15607618749878
C            6.23576630600061        1.27062292314644       -0.71239014473378
C            6.91930017867375        0.26498145652982       -0.04427784508679
O            8.17621286476719        0.34808446140483        0.42845957655811
C            8.90877401936996        1.53578010953692        0.23233521818213
C            6.26922055793862       -0.98083662358443        0.17803198892867
O            7.00680859427907       -1.90014199575774        0.83160255687825
C            6.46431423781407       -3.17555449414670        1.07573776666093
C            4.97130830923822       -1.16070897717406       -0.27372136002110
C           -0.06378051424477       -1.29573927851194       -0.75704345793102
C           -4.17949364342948        2.83959451607658        0.57435980072155
C           -4.82217829255824        2.50845084786846        1.91939716059320
C           -3.82954940403234        4.32421653091759        0.52366131388920
H           -4.74360703719266        0.64145351655184       -1.32069319664692
H           -8.62060225295742        0.12341852603618       -3.63452057083935
H           -7.03735242621751       -1.86475257091213       -2.85935401513051
H           -6.09546367823603       -0.26816555970101       -2.64150798654032
H           -4.74821055057529       -3.97122485037500        2.52944799393080
H           -5.06532886679751       -5.25349520998648        1.33630907215481
H           -3.42760191052738       -4.57016926895342        1.48287893555412
H           -3.06627859233117       -2.32717119989325        2.23868745258533
H           -2.28286697929448       -0.04107548150416        2.09877423347990
H           -3.24397014902056        2.33111936553214       -1.82657096192506
H           -1.86748878066830        3.15833636175998       -1.11230566398711
H           -1.96197343090064        0.15139437482317       -1.64250921902774
H           -1.33629299771459        1.35397704132399       -2.77149715816399
H           -0.89350844434467        1.61825473386728        0.87078711239532
H            0.41053797820899        2.03864212629503       -1.04948611034357
H            2.05890492202284       -0.51479416377636        0.59488345779856
H            2.14090167570247        1.14106710152999       -0.02563412977662
H            2.68791845913471        0.24688345639667       -2.29777409685846
H            2.70357319682437       -1.39576019340650       -1.63705614206046
H            4.43164545501863        1.86225964121383       -1.68092644963735
H            6.70967539386445        2.22070241362772       -0.89657952315983
H            8.43288271610594        2.38680671496205        0.72902154730629
H            9.03557336392425        1.75691042537384       -0.83158854245694
H            9.88316751016663        1.35478055358699        0.68193086386364
H            7.24560475196570       -3.73104320024948        1.59081930693041
H            5.57889128735026       -3.11933424261407        1.71722793936100
H            6.21022008275580       -3.68913738829842        0.14332747844343
H            4.47351571002033       -2.10495353488563       -0.11686466550704
H           -0.22944646058149       -1.61609477513557       -1.78814802148096
H           -1.02020458428239       -1.30287157330114       -0.22830906512792
H            0.60188006319589       -2.00817459842574       -0.27637109936348
H           -4.91987687094312        2.64133083110011       -0.20900680208607
H           -4.12656410745974        2.71663719784372        2.72564403588015
H           -5.11968031054863        1.46379710281654        1.96937276132289
H           -5.70813107948706        3.12203615645970        2.05888555526381
H           -3.08049778910525        4.56164565008065        1.27261280710807
H           -3.46623822782275        4.62338008687586       -0.45581536437592
H           -4.72101433580245        4.90694464587962        0.73949307691648
H           -1.02205919863707        2.91541113370472        2.81492961226991

 Bond Distances (Angstroems)
 ---------------------------
N1-C2=1.2489         N1-H72=1.0151        C2-N1=1.2489         C2-C3=1.5050         C2-H47=1.1072        C3-C2=1.5050         
C3-C4=1.5210         C3-C14=1.5516        C3-C31=1.5586        C4-C3=1.5210         C4-C5=1.3903         C4-C13=1.3909        
C5-C4=1.3903         C5-C6=1.3936         C5-H34=1.0774        C6-C5=1.3936         C6-O7=1.3528         C6-C9=1.4217         
O7-C6=1.3528         O7-C8=1.3049         C8-O7=1.3049         C8-H36=1.0722        C8-H37=1.0744        C9-C6=1.4217         
C9-O10=1.3450        C9-C12=1.3865        O10-C9=1.3450        O10-C11=1.4105       C11-O10=1.4105       C11-H38=1.0934       
C11-H39=1.0880       C11-H40=1.0943       C12-C9=1.3865        C12-C13=1.3891       C12-H41=1.0778       C13-C4=1.3909        
C13-C12=1.3891       C13-H42=1.0786       C14-C3=1.5516        C14-C15=1.5398       C14-H43=1.0892       C14-H44=1.0904       
C15-C14=1.5398       C15-C16=1.4801       C15-H45=1.0887       C15-H46=1.0980       C16-C15=1.4801       C16-N17=1.3290       
C16-H48=1.0799       N17-C16=1.3290       N17-C18=1.4441       N17-C30=1.4433       C18-N17=1.4441       C18-C19=1.5410       
C18-H49=1.0935       C18-H50=1.0918       C19-C18=1.5410       C19-C20=1.5036       C19-H51=1.0913       C19-H52=1.0905       
C20-C19=1.5036       C20-C21=1.3854       C20-C29=1.3930       C21-C20=1.3854       C21-C22=1.3863       C21-H53=1.0795       
C22-C21=1.3863       C22-C23=1.3874       C22-H54=1.0776       C23-C22=1.3874       C23-O24=1.3454       C23-C26=1.4227       
O24-C23=1.3454       O24-C25=1.4092       C25-O24=1.4092       C25-H55=1.0943       C25-H56=1.0940       C25-H57=1.0883       
C26-C23=1.4227       C26-O27=1.3477       C26-C29=1.3860       O27-C26=1.3477       O27-C28=1.4073       C28-O27=1.4073       
C28-H58=1.0883       C28-H59=1.0948       C28-H60=1.0944       C29-C20=1.3930       C29-C26=1.3860       C29-H61=1.0789       
C30-N17=1.4433       C30-H62=1.0924       C30-H63=1.0929       C30-H64=1.0871       C31-C3=1.5586        C31-C32=1.5270       
C31-C33=1.5262       C31-H65=1.0960       C32-C31=1.5270       C32-H66=1.0850       C32-H67=1.0873       C32-H68=1.0867       
C33-C31=1.5262       C33-H69=1.0855       C33-H70=1.0867       C33-H71=1.0867       H34-C5=1.0774        H36-C8=1.0722        
H37-C8=1.0744        H38-C11=1.0934       H39-C11=1.0880       H40-C11=1.0943       H41-C12=1.0778       H42-C13=1.0786       
H43-C14=1.0892       H44-C14=1.0904       H45-C15=1.0887       H46-C15=1.0980       H47-C2=1.1072        H48-C16=1.0799       
H49-C18=1.0935       H50-C18=1.0918       H51-C19=1.0913       H52-C19=1.0905       H53-C21=1.0795       H54-C22=1.0776       
H55-C25=1.0943       H56-C25=1.0940       H57-C25=1.0883       H58-C28=1.0883       H59-C28=1.0948       H60-C28=1.0944       
H61-C29=1.0789       H62-C30=1.0924       H63-C30=1.0929       H64-C30=1.0871       H65-C31=1.0960       H66-C32=1.0850       
H67-C32=1.0873       H68-C32=1.0867       H69-C33=1.0855       H70-C33=1.0867       H71-C33=1.0867       H72-N1=1.0151        
 C  H  Rav=1.0879 sigma=0.0073  Rmin=1.0722  Rmax=1.1072    37
 C  C  Rav=1.4539 sigma=0.0677  Rmin=1.3854  Rmax=1.5586    22
 N  H  Rav=1.0151 sigma=0.0000  Rmin=1.0151  Rmax=1.0151     1
 N  C  Rav=1.3663 sigma=0.0824  Rmin=1.2489  Rmax=1.4441     4
 O  C  Rav=1.3654 sigma=0.0365  Rmin=1.3049  Rmax=1.4105     8

 selected bond angles (degree)
 --------------------
H72-N1-C2=117.88               C3-C2-N1=124.52                H47-C2-N1=123.86               H47-C2-C3=111.57               
C4-C3-C2=109.55                C14-C3-C2=106.02               C14-C3-C4=110.03               C31-C3-C2=113.18               
C31-C3-C4=108.19               C31-C3-C14=109.85              C5-C4-C3=119.99                C13-C4-C3=121.76               
C13-C4-C5=118.23               C6-C5-C4=121.19                H34-C5-C4=119.65               H34-C5-C6=119.14               
O7-C6-C5=125.08                C9-C6-C5=120.09                C9-C6-O7=114.83                C8-O7-C6=126.26                
H36-C8-O7=115.09               H37-C8-O7=124.03               H37-C8-H36=120.80              O10-C9-C6=115.69               
C12-C9-C6=118.15               C12-C9-O10=126.16              C11-O10-C9=119.10              

 selected dihedral angles (degree)
 ---------------------------------
C3-C2-N1-H72=181.85           H47-C2-N1-H72=359.23          C4-C3-C2-N1=248.86            C4-C3-C2-H47= 71.20           
C14-C3-C2-N1=130.17           C14-C3-C2-H47=312.51          C31-C3-C2-N1=  9.69           C31-C3-C2-H47=192.03          
C5-C4-C3-C2=188.81            C5-C4-C3-C14=304.98           C5-C4-C3-C31= 65.00           C13-C4-C3-C2= 10.36           
C13-C4-C3-C14=126.53          C13-C4-C3-C31=246.55          C6-C5-C4-C3=181.64            C6-C5-C4-C13=  0.14           
H34-C5-C4-C3=  0.19           H34-C5-C4-C13=178.69          O7-C6-C5-C4=178.89            O7-C6-C5-H34=  0.34           
C9-C6-C5-C4=359.81            C9-C6-C5-H34=181.25           C8-O7-C6-C5=  2.86            C8-O7-C6-C9=181.99            
H36-C8-O7-C6=182.06           H37-C8-O7-C6=358.89           O10-C9-C6-C5=180.05           O10-C9-C6-O7=  0.88           
C12-C9-C6-C5=  0.00           C12-C9-C6-O7=180.84           C11-O10-C9-C6=182.06          C11-O10-C9-C12=  2.09         

 CMA Distance (Angstroems)
 ---------------------------
R(CMA):  9.4110
           -------------------------------------------------
          |                Final Singlepoint                |
           -------------------------------------------------

          ...................................................
          :                      SETUP                      :
          :.................................................:
          :  # basis functions                 171          :
          :  # atomic orbitals                 171          :
          :  # shells                          105          :
          :  # electrons                       180          :
          :  max. iterations                   250          :
          :  Hamiltonian                  GFN2-xTB          :
          :  restarted?                      false          :
          :  GBSA solvation                  false          :
          :  PC potential                    false          :
          :  electronic temp.         5000.0000000     K    :
          :  accuracy                    1.0000000          :
          :  -> integral cutoff          0.2500000E+02      :
          :  -> integral neglect         0.1000000E-07      :
          :  -> SCF convergence          0.1000000E-05 Eh   :
          :  -> wf. convergence          0.1000000E-03 e    :
          :  Broyden damping             0.4000000          :
          ...................................................

 iter      E             dE          RMSdq      gap      omega  full diag
   1   -100.6427551 -0.100643E+03  0.593E-06    0.44       0.0  T
   2   -100.6427551  0.134435E-10  0.118E-05    0.44     997.9  T
   3   -100.6427551 -0.156604E-10  0.382E-06    0.44    3083.7  T

   *** convergence criteria satisfied after 3 iterations ***

         #    Occupation            Energy/Eh            Energy/eV
      -------------------------------------------------------------
         1        2.0000           -0.8496328             -23.1197
       ...           ...                  ...                  ...
        84        1.9954           -0.5136530             -13.9772
        85        1.9953           -0.5132189             -13.9654
        86        1.9788           -0.4893676             -13.3164
        87        1.9724           -0.4851468             -13.2015
        88        1.9440           -0.4736983             -12.8900
        89        1.8448           -0.4567196             -12.4280
        90        1.1692           -0.4229360             -11.5087 (HOMO)
        91        0.6749           -0.4068422             -11.0707 (LUMO)
        92        0.4126           -0.3961919             -10.7809
        93        0.0170           -0.3421581              -9.3106
        94        0.0073           -0.3286786              -8.9438
        95        0.0047           -0.3217727              -8.7559
       ...           ...                  ...                  ...
       171                          0.5757752              15.6676
      -------------------------------------------------------------
                  HL-Gap            0.0160939 Eh            0.4379 eV
             Fermi-level           -0.4175245 Eh          -11.3614 eV

 SCC (total)                   0 d,  0 h,  0 min,  0.117 sec
 SCC setup                      ...        0 min,  0.001 sec (  0.795%)
 Dispersion                     ...        0 min,  0.002 sec (  1.323%)
 classical contributions        ...        0 min,  0.000 sec (  0.369%)
 integral evaluation            ...        0 min,  0.018 sec ( 15.373%)
 iterations                     ...        0 min,  0.027 sec ( 22.673%)
 molecular gradient             ...        0 min,  0.069 sec ( 58.898%)
 printout                       ...        0 min,  0.001 sec (  0.557%)

         :::::::::::::::::::::::::::::::::::::::::::::::::::::
         ::                     SUMMARY                     ::
         :::::::::::::::::::::::::::::::::::::::::::::::::::::
         :: total energy             -99.267888804949 Eh    ::
         :: gradient norm              0.002969078389 Eh/a0 ::
         :: HOMO-LUMO gap              0.437936165849 eV    ::
         ::.................................................::
         :: SCC energy              -100.642755128792 Eh    ::
         :: -> isotropic ES            0.106718469575 Eh    ::
         :: -> anisotropic ES          0.004011166902 Eh    ::
         :: -> anisotropic XC          0.045527035364 Eh    ::
         :: -> dispersion             -0.074826824522 Eh    ::
         :: repulsion energy           1.373670281187 Eh    ::
         :: add. restraining           0.000000000000 Eh    ::
         :: total charge               0.999999999288 e     ::
         :::::::::::::::::::::::::::::::::::::::::::::::::::::

           -------------------------------------------------
          |                Property Printout                |
           -------------------------------------------------

    * Orbital Energies and Occupations

         #    Occupation            Energy/Eh            Energy/eV
      -------------------------------------------------------------
         1        2.0000           -0.8496328             -23.1197
       ...           ...                  ...                  ...
        78        1.9985           -0.5314531             -14.4616
        79        1.9983           -0.5298908             -14.4191
        80        1.9983           -0.5293889             -14.4054
        81        1.9971           -0.5208748             -14.1737
        82        1.9967           -0.5190312             -14.1236
        83        1.9966           -0.5183556             -14.1052
        84        1.9954           -0.5136530             -13.9772
        85        1.9953           -0.5132189             -13.9654
        86        1.9788           -0.4893676             -13.3164
        87        1.9724           -0.4851468             -13.2015
        88        1.9440           -0.4736983             -12.8900
        89        1.8448           -0.4567196             -12.4280
        90        1.1692           -0.4229360             -11.5087 (HOMO)
        91        0.6749           -0.4068422             -11.0707 (LUMO)
        92        0.4126           -0.3961919             -10.7809
        93        0.0170           -0.3421581              -9.3106
        94        0.0073           -0.3286786              -8.9438
        95        0.0047           -0.3217727              -8.7559
        96        0.0028           -0.3133025              -8.5254
        97        0.0024           -0.3109836              -8.4623
        98        0.0000           -0.2039160              -5.5488
        99        0.0000           -0.1885266              -5.1301
       100                         -0.1387566              -3.7758
       101                         -0.0759018              -2.0654
       ...                                ...                  ...
       171                          0.5757752              15.6676
      -------------------------------------------------------------
                  HL-Gap            0.0160939 Eh            0.4379 eV
             Fermi-level           -0.4175245 Eh          -11.3614 eV

     #   Z          covCN         q      C6AA      α(0)
     1   7 N        1.774    -0.269    27.797     7.807
     2   6 C        2.826     0.100    25.776     8.319
     3   6 C        3.907     0.006    20.420     6.423
     4   6 C        2.973     0.006    27.884     8.662
     5   6 C        2.919    -0.068    29.705     8.938
     6   6 C        2.866     0.103    25.722     8.313
     7   8 O        1.710    -0.101    15.843     5.374
     8   6 C        2.731     0.034    27.222     8.542
     9   6 C        2.862     0.135    25.052     8.204
    10   8 O        1.706    -0.230    17.814     5.699
    11   6 C        3.646     0.025    20.493     6.506
    12   6 C        2.913    -0.074    29.846     8.958
    13   6 C        2.922    -0.048    29.203     8.862
    14   6 C        3.812    -0.066    21.752     6.638
    15   6 C        3.802    -0.069    21.816     6.650
    16   6 C        2.843     0.005    27.913     8.659
    17   7 N        2.729     0.009    21.100     6.822
    18   6 C        3.756    -0.016    20.921     6.522
    19   6 C        3.807    -0.071    21.843     6.653
    20   6 C        2.969    -0.001    28.038     8.685
    21   6 C        2.922    -0.049    29.214     8.864
    22   6 C        2.914    -0.067    29.680     8.934
    23   6 C        2.865     0.134    25.078     8.209
    24   8 O        1.706    -0.222    17.677     5.677
    25   6 C        3.645     0.025    20.491     6.506
    26   6 C        2.863     0.133    25.089     8.210
    27   8 O        1.706    -0.225    17.725     5.684
    28   6 C        3.645     0.027    20.452     6.500
    29   6 C        2.919    -0.080    29.990     8.980
    30   6 C        3.699    -0.069    21.994     6.707
    31   6 C        3.853    -0.008    20.677     6.467
    32   6 C        3.756    -0.119    22.841     6.814
    33   6 C        3.755    -0.119    22.833     6.813
    34   1 H        0.926     0.058     2.220     2.330
    35   1 H        0.000    -0.138    17.754     7.705
    36   1 H        0.926     0.105     1.739     2.062
    37   1 H        0.926     0.072     2.067     2.248
    38   1 H        0.924     0.058     2.227     2.333
    39   1 H        0.925     0.084     1.940     2.178
    40   1 H        0.924     0.050     2.316     2.380
    41   1 H        0.926     0.057     2.230     2.335
    42   1 H        0.926     0.046     2.372     2.408
    43   1 H        0.925     0.060     2.196     2.317
    44   1 H        0.924     0.056     2.251     2.346
    45   1 H        0.925     0.063     2.169     2.303
    46   1 H        0.923     0.080     1.975     2.198
    47   1 H        0.922     0.005     2.971     2.695
    48   1 H        0.926     0.069     2.092     2.262
    49   1 H        0.924     0.067     2.123     2.279
    50   1 H        0.924     0.068     2.111     2.272
    51   1 H        0.924     0.056     2.251     2.346
    52   1 H        0.924     0.055     2.256     2.349
    53   1 H        0.926     0.045     2.380     2.413
    54   1 H        0.926     0.059     2.214     2.327
    55   1 H        0.924     0.054     2.266     2.354
    56   1 H        0.924     0.056     2.245     2.343
    57   1 H        0.925     0.083     1.953     2.185
    58   1 H        0.925     0.082     1.959     2.189
    59   1 H        0.924     0.048     2.342     2.393
    60   1 H        0.924     0.052     2.290     2.366
    61   1 H        0.926     0.047     2.363     2.404
    62   1 H        0.924     0.076     2.023     2.224
    63   1 H        0.924     0.076     2.025     2.225
    64   1 H        0.925     0.080     1.980     2.201
    65   1 H        0.924     0.037     2.484     2.465
    66   1 H        0.925     0.070     2.090     2.261
    67   1 H        0.925     0.033     2.543     2.494
    68   1 H        0.925     0.053     2.285     2.364
    69   1 H        0.925     0.061     2.189     2.313
    70   1 H        0.925     0.035     2.513     2.479
    71   1 H        0.925     0.056     2.249     2.345
    72   1 H        0.860     0.157     1.354     1.823

 Mol. C6AA /au·bohr⁶  :      48707.604830
 Mol. C8AA /au·bohr⁸  :    1104973.952021
 Mol. α(0) /au        :        341.119679


Wiberg/Mayer (AO) data.
largest (>0.10) Wiberg bond orders for each atom

 ---------------------------------------------------------------------------
     #   Z sym  total        # sym  WBO       # sym  WBO       # sym  WBO
 ---------------------------------------------------------------------------
     1   7 N    3.039 --     2 C    1.957    72 H    0.942
     2   6 C    3.928 --     1 N    1.957     3 C    0.994    47 H    0.902
     3   6 C    3.977 --     2 C    0.994     4 C    0.971    14 C    0.958
                            31 C    0.942
     4   6 C    3.968 --     5 C    1.402    13 C    1.392     3 C    0.971
     5   6 C    3.908 --     4 C    1.402     6 C    1.358    34 H    0.956
     6   6 C    3.891 --     5 C    1.358     9 C    1.224     7 O    1.058
     7   8 O    2.430 --     8 C    1.272     6 C    1.058
     8   6 C    3.337 --     7 O    1.272    37 H    0.964    36 H    0.962
     9   6 C    3.889 --    12 C    1.385     6 C    1.224    10 O    1.112
    10   8 O    2.269 --     9 C    1.112    11 C    0.973
    11   6 C    3.929 --    39 H    0.977    40 H    0.975    38 H    0.974
                            10 O    0.973
    12   6 C    3.961 --    13 C    1.410     9 C    1.385    41 H    0.963
    13   6 C    3.915 --    12 C    1.410     4 C    1.392    42 H    0.962
    14   6 C    3.973 --    15 C    0.982    44 H    0.972    43 H    0.969
                             3 C    0.958
    15   6 C    3.987 --    16 C    1.059    14 C    0.982    45 H    0.962
                            46 H    0.928
    16   6 C    3.579 --    17 N    1.394    15 C    1.059    48 H    0.957
    17   7 N    3.470 --    16 C    1.394    30 C    0.999    18 C    0.988
    18   6 C    3.955 --    17 N    0.988    50 H    0.968    19 C    0.967
                            49 H    0.964
    19   6 C    3.976 --    20 C    1.007    52 H    0.972    51 H    0.972
                            18 C    0.967
    20   6 C    3.944 --    21 C    1.410    29 C    1.380    19 C    1.007
    21   6 C    3.950 --    22 C    1.417    20 C    1.410    53 H    0.968
    22   6 C    3.959 --    21 C    1.417    23 C    1.383    54 H    0.963
    23   6 C    3.895 --    22 C    1.383    26 C    1.219    24 O    1.111
    24   8 O    2.256 --    23 C    1.111    25 C    0.976
    25   6 C    3.928 --    57 H    0.977    24 O    0.976    55 H    0.973
                            56 H    0.973
    26   6 C    3.899 --    29 C    1.395    23 C    1.219    27 O    1.104
    27   8 O    2.255 --    26 C    1.104    28 C    0.979
    28   6 C    3.932 --    27 O    0.979    58 H    0.977    59 H    0.973
                            60 H    0.973
    29   6 C    3.959 --    26 C    1.395    20 C    1.380    61 H    0.963
    30   6 C    3.959 --    17 N    0.999    64 H    0.978    62 H    0.967
                            63 H    0.963
    31   6 C    3.974 --    33 C    1.009    32 C    1.008    65 H    0.960
                             3 C    0.942
    32   6 C    3.980 --    31 C    1.008    67 H    0.982    68 H    0.981
                            66 H    0.974
    33   6 C    3.983 --    31 C    1.009    70 H    0.983    71 H    0.980
                            69 H    0.977
    34   1 H    0.996 --     5 C    0.956
    35   1 H    0.017
    36   1 H    0.988 --     8 C    0.962
    37   1 H    0.995 --     8 C    0.964
    38   1 H    0.994 --    11 C    0.974
    39   1 H    0.992 --    11 C    0.977
    40   1 H    0.995 --    11 C    0.975
    41   1 H    0.995 --    12 C    0.963
    42   1 H    0.997 --    13 C    0.962
    43   1 H    0.995 --    14 C    0.969
    44   1 H    0.996 --    14 C    0.972
    45   1 H    0.995 --    15 C    0.962
    46   1 H    0.969 --    15 C    0.928
    47   1 H    0.988 --     2 C    0.902
    48   1 H    0.995 --    16 C    0.957
    49   1 H    0.990 --    18 C    0.964
    50   1 H    0.994 --    18 C    0.968
    51   1 H    0.996 --    19 C    0.972
    52   1 H    0.996 --    19 C    0.972
    53   1 H    0.997 --    21 C    0.968
    54   1 H    0.995 --    22 C    0.963
    55   1 H    0.992 --    25 C    0.973
    56   1 H    0.992 --    25 C    0.973
    57   1 H    0.992 --    25 C    0.977
    58   1 H    0.993 --    28 C    0.977
    59   1 H    0.993 --    28 C    0.973
    60   1 H    0.993 --    28 C    0.973
    61   1 H    0.997 --    29 C    0.963
    62   1 H    0.985 --    30 C    0.967
    63   1 H    0.987 --    30 C    0.963
    64   1 H    0.993 --    30 C    0.978
    65   1 H    0.993 --    31 C    0.960
    66   1 H    0.991 --    32 C    0.974
    67   1 H    0.997 --    32 C    0.982
    68   1 H    0.994 --    32 C    0.981
    69   1 H    0.993 --    33 C    0.977
    70   1 H    0.997 --    33 C    0.983
    71   1 H    0.994 --    33 C    0.980
    72   1 H    0.971 --     1 N    0.942
 ---------------------------------------------------------------------------

Topologies differ in total number of bonds
Writing topology from bond orders to xtbtopo.mol

molecular dipole:
                 x           y           z       tot (Debye)
 q only:        1.501      -0.634      -0.140
   full:        1.742      -0.725      -0.332       4.869
molecular quadrupole (traceless):
                xx          xy          yy          xz          yz          zz
 q only:       30.557      13.774       1.244     -11.060      -8.337     -31.801
  q+dip:       25.410      18.636       2.883      -7.546     -12.422     -28.293
   full:       25.250      18.038       2.083     -10.525     -11.845     -27.333

           -------------------------------------------------
          |                Geometry Summary                 |
           -------------------------------------------------

      molecular mass/u    :      455.6105846
   center of mass at/Å    :        0.0294885      -0.0086552       0.0171713
  moments of inertia/u·Å² :        0.2478153E+04   0.1101852E+05   0.1228078E+05
rotational constants/cm⁻¹ :        0.6802498E-02   0.1529936E-02   0.1372684E-02

 * 65 selected distances

     #   Z          #   Z                                           value/Å
     1   7 N        2   6 C                                       1.2488830
     4   6 C        5   6 C                                       1.3903221
     5   6 C        6   6 C                                       1.3936170
     6   6 C        7   8 O                                       1.3528358
     7   8 O        8   6 C                                       1.3048846
     6   6 C        9   6 C                                       1.4216911
     9   6 C       10   8 O                                       1.3450480
    10   8 O       11   6 C                                       1.4104983
     9   6 C       12   6 C                                       1.3864673
     4   6 C       13   6 C                                       1.3908756
    12   6 C       13   6 C                                       1.3890870
    14   6 C       15   6 C                                       1.5398228
    15   6 C       16   6 C                                       1.4801017
    16   6 C       17   7 N                                       1.3289837
    17   7 N       18   6 C                                       1.4440917
    18   6 C       19   6 C                                       1.5410119 (max)
    20   6 C       21   6 C                                       1.3854335
    21   6 C       22   6 C                                       1.3862563
    22   6 C       23   6 C                                       1.3874104
    23   6 C       24   8 O                                       1.3454429
    24   8 O       25   6 C                                       1.4091600
    23   6 C       26   6 C                                       1.4227046
    26   6 C       27   8 O                                       1.3477067
    27   8 O       28   6 C                                       1.4073306
    20   6 C       29   6 C                                       1.3929822
    26   6 C       29   6 C                                       1.3860057
    17   7 N       30   6 C                                       1.4432682
    31   6 C       32   6 C                                       1.5270316
    31   6 C       33   6 C                                       1.5261501
     5   6 C       34   1 H                                       1.0773507
     8   6 C       36   1 H                                       1.0721836 (min)
     8   6 C       37   1 H                                       1.0743909
    11   6 C       38   1 H                                       1.0933997
    11   6 C       39   1 H                                       1.0880462
    11   6 C       40   1 H                                       1.0943138
    12   6 C       41   1 H                                       1.0778409
    13   6 C       42   1 H                                       1.0785788
    14   6 C       43   1 H                                       1.0892418
    14   6 C       44   1 H                                       1.0903685
    15   6 C       45   1 H                                       1.0886547
    15   6 C       46   1 H                                       1.0979555
    16   6 C       48   1 H                                       1.0799320
    18   6 C       49   1 H                                       1.0935358
    18   6 C       50   1 H                                       1.0918044
    19   6 C       51   1 H                                       1.0912611
    19   6 C       52   1 H                                       1.0905497
    21   6 C       53   1 H                                       1.0794676
    22   6 C       54   1 H                                       1.0775745
    25   6 C       55   1 H                                       1.0942652
    25   6 C       56   1 H                                       1.0940341
    25   6 C       57   1 H                                       1.0882739
    28   6 C       58   1 H                                       1.0882517
    28   6 C       59   1 H                                       1.0948262
    28   6 C       60   1 H                                       1.0944041
    29   6 C       61   1 H                                       1.0788881
    30   6 C       62   1 H                                       1.0923597
    30   6 C       63   1 H                                       1.0928669
    30   6 C       64   1 H                                       1.0870668
    31   6 C       65   1 H                                       1.0959650
    32   6 C       66   1 H                                       1.0850138
    32   6 C       67   1 H                                       1.0873393
    32   6 C       68   1 H                                       1.0866722
    33   6 C       69   1 H                                       1.0855319
    33   6 C       70   1 H                                       1.0866778
    33   6 C       71   1 H                                       1.0866763

 * 4 distinct bonds (by element types)

   Z      Z             #   av. dist./Å        max./Å        min./Å
   1 H    6 C          36     1.0873768     1.0979555     1.0721836
   6 C    6 C          17     1.4321748     1.5410119     1.3854335
   6 C    7 N           4     1.3663067     1.4440917     1.2488830
   6 C    8 O           8     1.3653634     1.4104983     1.3048846


optimized geometry written to: xtbopt.xyz


           -------------------------------------------------
          | TOTAL ENERGY              -99.267888804949 Eh   |
          | GRADIENT NORM               0.002969078389 Eh/α |
          | HOMO-LUMO GAP               0.437936165849 eV   |
           -------------------------------------------------

------------------------------------------------------------------------
 * finished run on 2024/04/06 at 11:12:38.853     
------------------------------------------------------------------------
 total:
 * wall-time:     0 d,  0 h,  0 min,  0.465 sec
 *  cpu-time:     0 d,  0 h,  0 min,  0.439 sec
 * ratio c/w:     0.943 speedup
 SCF:
 * wall-time:     0 d,  0 h,  0 min,  0.119 sec
 *  cpu-time:     0 d,  0 h,  0 min,  0.119 sec
 * ratio c/w:     1.000 speedup
 ANC optimizer:
 * wall-time:     0 d,  0 h,  0 min,  0.304 sec
 *  cpu-time:     0 d,  0 h,  0 min,  0.296 sec
 * ratio c/w:     0.974 speedup

