      -----------------------------------------------------------      
     |                   =====================                   |     
     |                           x T B                           |     
     |                   =====================                   |     
     |                         S. Grimme                         |     
     |          Mulliken Center for Theoretical Chemistry        |     
     |                    University of Bonn                     |     
      -----------------------------------------------------------      

   * xtb version 6.6.1 (8d0f1dd) compiled by 'conda@1efc2f54142f' on 2023-08-01

   xtb is free software: you can redistribute it and/or modify it under
   the terms of the GNU Lesser General Public License as published by
   the Free Software Foundation, either version 3 of the License, or
   (at your option) any later version.
   
   xtb is distributed in the hope that it will be useful,
   but WITHOUT ANY WARRANTY; without even the implied warranty of
   MERCHANTABILITY or FITNESS FOR A PARTICULAR PURPOSE.  See the
   GNU Lesser General Public License for more details.
   
   Cite this work as:
   * C. Bannwarth, E. Caldeweyher, S. Ehlert, A. Hansen, P. Pracht,
     J. Seibert, S. Spicher, S. Grimme, WIREs Comput. Mol. Sci., 2020, 11,
     e01493. DOI: 10.1002/wcms.1493
   
   for GFN2-xTB:
   * C. Bannwarth, S. Ehlert and S. Grimme., J. Chem. Theory Comput., 2019,
     15, 1652-1671. DOI: 10.1021/acs.jctc.8b01176
   for GFN1-xTB:
   * S. Grimme, C. Bannwarth, P. Shushkov, J. Chem. Theory Comput., 2017,
     13, 1989-2009. DOI: 10.1021/acs.jctc.7b00118
   for GFN0-xTB:
   * P. Pracht, E. Caldeweyher, S. Ehlert, S. Grimme, ChemRxiv, 2019, preprint.
     DOI: 10.26434/chemrxiv.8326202.v1
   for GFN-FF:
   * S. Spicher and S. Grimme, Angew. Chem. Int. Ed., 2020, 59, 15665-15673.
     DOI: 10.1002/anie.202004239
   
   for ALPB and GBSA implicit solvation:
   * S. Ehlert, M. Stahn, S. Spicher, S. Grimme, J. Chem. Theory Comput.,
     2021, 17, 4250-4261. DOI: 10.1021/acs.jctc.1c00471
   
   for DFT-D4:
   * E. Caldeweyher, C. Bannwarth and S. Grimme, J. Chem. Phys., 2017,
     147, 034112. DOI: 10.1063/1.4993215
   * E. Caldeweyher, S. Ehlert, A. Hansen, H. Neugebauer, S. Spicher,
     C. Bannwarth and S. Grimme, J. Chem. Phys., 2019, 150, 154122.
     DOI: 10.1063/1.5090222
   * E. Caldeweyher, J.-M. Mewes, S. Ehlert and S. Grimme, Phys. Chem. Chem. Phys.
     2020, 22, 8499-8512. DOI: 10.1039/D0CP00502A
   
   for sTDA-xTB:
   * S. Grimme and C. Bannwarth, J. Chem. Phys., 2016, 145, 054103.
     DOI: 10.1063/1.4959605
   
   in the mass-spec context:
   * V. Asgeirsson, C. Bauer and S. Grimme, Chem. Sci., 2017, 8, 4879.
     DOI: 10.1039/c7sc00601b
   * J. Koopman and S. Grimme, ACS Omega 2019, 4, 12, 15120-15133.
     DOI: 10.1021/acsomega.9b02011
   
   for metadynamics refer to:
   * S. Grimme, J. Chem. Theory Comput., 2019, 155, 2847-2862
     DOI: 10.1021/acs.jctc.9b00143
   
   for SPH calculations refer to:
   * S. Spicher and S. Grimme, J. Chem. Theory Comput., 2021, 17, 1701-1714
     DOI: 10.1021/acs.jctc.0c01306
   
   with help from (in alphabetical order)
   P. Atkinson, C. Bannwarth, F. Bohle, G. Brandenburg, E. Caldeweyher
   M. Checinski, S. Dohm, S. Ehlert, S. Ehrlich, I. Gerasimov, C. Hölzer
   A. Katbashev, J. Koopman, C. Lavigne, S. Lehtola, F. März, M. Müller,
   F. Musil, H. Neugebauer, J. Pisarek, C. Plett, P. Pracht, F. Pultar,
   J. Seibert, P. Shushkov, S. Spicher, M. Stahn, M. Steiner, T. Strunk,
   J. Stückrath, T. Rose, and J. Unsleber
   
 * started run on 2024/06/05 at 20:00:16.377     

           -------------------------------------------------
          |                Calculation Setup                |
           -------------------------------------------------

          program call               : xtb struc.xyz --opt loose --input .xc1 --gfn2
          hostname                   : n-62-11-66
          coordinate file            : struc.xyz
          omp threads                :                     1

   ID    Z sym.   atoms
    1    6 C      1, 3, 5-7, 10, 11, 14
    2    7 N      2, 4, 9, 13
    3    8 O      8, 12
    4    1 H      15-25
constraining bond 11 19 to    5.1400000 Å, actual value:    3.2966745 Å

           -------------------------------------------------
          |                 G F N 2 - x T B                 |
           -------------------------------------------------

        Reference                      10.1021/acs.jctc.8b01176
      * Hamiltonian:
        H0-scaling (s, p, d)           1.850000    2.230000    2.230000
        zeta-weighting                 0.500000
      * Dispersion:
        s8                             2.700000
        a1                             0.520000
        a2                             5.000000
        s9                             5.000000
      * Repulsion:
        kExp                           1.500000    1.000000
        rExp                           1.000000
      * Coulomb:
        alpha                          2.000000
        third order                    shell-resolved
        anisotropic                    true
        a3                             3.000000
        a5                             4.000000
        cn-shift                       1.200000
        cn-exp                         4.000000
        max-rad                        5.000000


          ...................................................
          :                      SETUP                      :
          :.................................................:
          :  # basis functions                  67          :
          :  # atomic orbitals                  67          :
          :  # shells                           39          :
          :  # electrons                        74          :
          :  max. iterations                   250          :
          :  Hamiltonian                  GFN2-xTB          :
          :  restarted?                      false          :
          :  GBSA solvation                  false          :
          :  PC potential                    false          :
          :  electronic temp.         5000.0000000     K    :
          :  accuracy                    1.0000000          :
          :  -> integral cutoff          0.2500000E+02      :
          :  -> integral neglect         0.1000000E-07      :
          :  -> SCF convergence          0.1000000E-05 Eh   :
          :  -> wf. convergence          0.1000000E-03 e    :
          :  Broyden damping             0.4000000          :
          ...................................................

 iter      E             dE          RMSdq      gap      omega  full diag
   1    -42.5894031 -0.425894E+02  0.445E+00    3.52       0.0  T
   2    -42.7683054 -0.178902E+00  0.251E+00    3.36       1.0  T
   3    -42.7759211 -0.761567E-02  0.147E+00    3.35       1.0  T
   4    -42.7728404  0.308066E-02  0.553E-01    3.33       1.0  T
   5    -42.7789548 -0.611444E-02  0.112E-01    3.35       1.0  T
   6    -42.7790473 -0.924914E-04  0.614E-02    3.33       1.0  T
   7    -42.7790721 -0.247928E-04  0.258E-02    3.34       1.0  T
   8    -42.7790772 -0.508996E-05  0.938E-03    3.34       2.1  T
   9    -42.7790779 -0.669422E-06  0.448E-03    3.34       4.5  T
  10    -42.7790780 -0.821510E-07  0.115E-03    3.34      17.4  T
  11    -42.7790780 -0.322663E-08  0.553E-04    3.34      36.2  T
  12    -42.7790780 -0.287051E-08  0.180E-04    3.34     111.1  T

   *** convergence criteria satisfied after 12 iterations ***

         #    Occupation            Energy/Eh            Energy/eV
      -------------------------------------------------------------
         1        2.0000           -0.9185990             -24.9964
       ...           ...                  ...                  ...
        31        1.9996           -0.6230278             -16.9534
        32        1.9995           -0.6194601             -16.8564
        33        1.9979           -0.5974976             -16.2587
        34        1.9932           -0.5789629             -15.7544
        35        1.9817           -0.5631863             -15.3251
        36        1.9779           -0.5602245             -15.2445
        37        1.9748           -0.5581234             -15.1873 (HOMO)
        38        0.0652           -0.4353579             -11.8467 (LUMO)
        39        0.0099           -0.4050467             -11.0219
        40        0.0013           -0.3732218             -10.1559
        41        0.0000           -0.2886859              -7.8555
        42                         -0.2065804              -5.6213
       ...                                ...                  ...
        67                          0.5625656              15.3082
      -------------------------------------------------------------
                  HL-Gap            0.1227656 Eh            3.3406 eV
             Fermi-level           -0.4890455 Eh          -13.3076 eV

 SCC (total)                   0 d,  0 h,  0 min,  0.033 sec
 SCC setup                      ...        0 min,  0.000 sec (  0.812%)
 Dispersion                     ...        0 min,  0.000 sec (  0.940%)
 classical contributions        ...        0 min,  0.000 sec (  0.272%)
 integral evaluation            ...        0 min,  0.005 sec ( 14.623%)
 iterations                     ...        0 min,  0.016 sec ( 47.985%)
 molecular gradient             ...        0 min,  0.012 sec ( 34.906%)
 printout                       ...        0 min,  0.000 sec (  0.438%)

         :::::::::::::::::::::::::::::::::::::::::::::::::::::
         ::                     SUMMARY                     ::
         :::::::::::::::::::::::::::::::::::::::::::::::::::::
         :: total energy             -17.979984403259 Eh    ::
         :: gradient norm             19.705639568680 Eh/a0 ::
         :: HOMO-LUMO gap              3.340621582928 eV    ::
         ::.................................................::
         :: SCC energy               -42.779077977399 Eh    ::
         :: -> isotropic ES            0.141123876439 Eh    ::
         :: -> anisotropic ES         -0.005230418907 Eh    ::
         :: -> anisotropic XC          0.011966818540 Eh    ::
         :: -> dispersion             -0.022657731803 Eh    ::
         :: repulsion energy           0.531105277918 Eh    ::
         :: add. restraining          24.267874137213 Eh    ::
         :: total charge               1.000000000002 e     ::
         :::::::::::::::::::::::::::::::::::::::::::::::::::::

      ----------------------------------------------------------- 
     |                   =====================                   |
     |                        A N C O P T                        |
     |                   =====================                   |
     |               Approximate Normal Coordinate               |
     |                Rational Function Optimizer                |
      ----------------------------------------------------------- 

          ...................................................
          :                      SETUP                      :
          :.................................................:
          :   optimization level             loose          :
          :   max. optcycles                   200          :
          :   ANC micro-cycles                  20          :
          :   degrees of freedom                69          :
          :.................................................:
          :   RF solver                   davidson          :
          :   write xtbopt.log                true          :
          :   linear?                        false          :
          :   energy convergence         0.5000000E-04 Eh   :
          :   grad. convergence          0.4000000E-02 Eh/α :
          :   maxmium RF displ.          1.0000000          :
          :   Hlow (freq-cutoff)         0.1000000E-01      :
          :   Hmax (freq-cutoff)         5.0000000          :
          :   S6 in model hess.         20.0000000          :
          ...................................................

generating ANC from model Hessian ...
Using Lindh-Hessian (1995)
 Shifting diagonal of input Hessian by    4.1259287998114269     
 Lowest  eigenvalues of input Hessian
    0.010000    0.429341    0.000000    0.000000    0.000000    0.000000
    0.000000    0.000000    4.128900    4.130193    4.135320    4.136137
    4.137060    4.139468    4.142289    4.144507    4.150737    4.164235
 Highest eigenvalues
    6.218851    6.282452    6.346017    6.478625    6.562144   13.031337


........................................................................
.............................. CYCLE    1 ..............................
........................................................................

 iter      E             dE          RMSdq      gap      omega  full diag
   1    -42.7790780 -0.427791E+02  0.626E-05    3.34       0.0  T
   2    -42.7790780 -0.124416E-10  0.329E-05    3.34     607.4  T
   3    -42.7790780  0.127898E-12  0.193E-05    3.34    1034.2  T
     SCC iter.                  ...        0 min,  0.004 sec
     gradient                   ...        0 min,  0.011 sec
 * total energy  :   -17.9799844 Eh     change       -0.6650680E-10 Eh
   gradient norm :    19.7056393 Eh/α   predicted     0.0000000E+00 (-100.00%)
   displ. norm   :     0.8811723 α      lambda       -0.1736398E+02
   maximum displ.:     0.8764074 α      in ANC's #49, #61, #51, ...

........................................................................
.............................. CYCLE    2 ..............................
........................................................................

 iter      E             dE          RMSdq      gap      omega  full diag
   1    -42.6860711 -0.426861E+02  0.126E+00    3.12       0.0  T
   2    -42.7011537 -0.150826E-01  0.840E-01    2.45       1.0  T
   3    -42.7038988 -0.274513E-02  0.433E-01    2.76       1.0  T
   4    -42.7036803  0.218457E-03  0.217E-01    2.51       1.0  T
   5    -42.7043794 -0.699042E-03  0.585E-02    2.67       1.0  T
   6    -42.7044509 -0.715534E-04  0.150E-02    2.64       1.3  T
   7    -42.7044517 -0.798143E-06  0.749E-03    2.64       2.7  T
   8    -42.7044520 -0.306431E-06  0.141E-03    2.65      14.2  T
   9    -42.7044521 -0.180299E-07  0.605E-04    2.65      33.0  T
  10    -42.7044521 -0.148572E-08  0.323E-04    2.65      61.9  T
     SCC iter.                  ...        0 min,  0.013 sec
     gradient                   ...        0 min,  0.011 sec
 * total energy  :   -32.1294316 Eh     change       -0.1414945E+02 Eh
   gradient norm :    12.4330327 Eh/α   predicted    -0.1542328E+02 (   9.00%)
   displ. norm   :     0.7226293 α      lambda       -0.8977463E+01
   maximum displ.:     0.7156702 α      in ANC's #49, #61, #51, ...

........................................................................
.............................. CYCLE    3 ..............................
........................................................................

 iter      E             dE          RMSdq      gap      omega  full diag
   1    -42.5792944 -0.425793E+02  0.112E+00    2.41       0.0  T
   2    -42.5876328 -0.833839E-02  0.818E-01    1.82       1.0  T
   3    -42.5927369 -0.510410E-02  0.392E-01    2.28       1.0  T
   4    -42.5921099  0.627024E-03  0.328E-01    1.91       1.0  T
   5    -42.5946431 -0.253319E-02  0.742E-02    2.11       1.0  T
   6    -42.5947074 -0.643351E-04  0.232E-02    2.10       1.0  T
   7    -42.5947172 -0.977455E-05  0.102E-02    2.10       2.0  T
   8    -42.5947178 -0.541913E-06  0.293E-03    2.10       6.8  T
   9    -42.5947179 -0.108600E-06  0.116E-03    2.10      17.3  T
  10    -42.5947179 -0.197426E-07  0.510E-04    2.10      39.2  T
  11    -42.5947179 -0.156425E-08  0.223E-04    2.10      89.7  T
     SCC iter.                  ...        0 min,  0.014 sec
     gradient                   ...        0 min,  0.011 sec
 * total energy  :   -38.9869408 Eh     change       -0.6857509E+01 Eh
   gradient norm :     6.5809658 Eh/α   predicted    -0.6835319E+01 (  -0.32%)
   displ. norm   :     0.5860936 α      lambda       -0.3780788E+01
   maximum displ.:     0.5506631 α      in ANC's #49, #2, #61, ...

........................................................................
.............................. CYCLE    4 ..............................
........................................................................

 iter      E             dE          RMSdq      gap      omega  full diag
   1    -42.5002626 -0.425003E+02  0.748E-01    1.67       0.0  T
   2    -42.5057046 -0.544194E-02  0.454E-01    1.59       1.0  T
   3    -42.5073897 -0.168514E-02  0.284E-01    1.57       1.0  T
   4    -42.5069965  0.393151E-03  0.146E-01    1.65       1.0  T
   5    -42.5075311 -0.534539E-03  0.100E-01    1.55       1.0  T
   6    -42.5078048 -0.273740E-03  0.205E-02    1.59       1.0  T
   7    -42.5078090 -0.420617E-05  0.104E-02    1.59       1.9  T
   8    -42.5078105 -0.144109E-05  0.381E-03    1.59       5.3  T
   9    -42.5078107 -0.209283E-06  0.125E-03    1.59      16.0  T
  10    -42.5078107 -0.896041E-08  0.735E-04    1.59      27.2  T
  11    -42.5078107 -0.617188E-08  0.355E-04    1.59      56.3  T
     SCC iter.                  ...        0 min,  0.014 sec
     gradient                   ...        0 min,  0.011 sec
 * total energy  :   -41.5356296 Eh     change       -0.2548689E+01 Eh
   gradient norm :     2.2404782 Eh/α   predicted    -0.2539755E+01 (  -0.35%)
   displ. norm   :     0.3807815 α      lambda       -0.6980616E+00
   maximum displ.:     0.2588442 α      in ANC's #49, #2, #64, ...

........................................................................
.............................. CYCLE    5 ..............................
........................................................................

 iter      E             dE          RMSdq      gap      omega  full diag
   1    -42.4670745 -0.424671E+02  0.713E-01    1.37       0.0  T
   2    -42.4726824 -0.560793E-02  0.473E-01    1.36       1.0  T
   3    -42.4758341 -0.315166E-02  0.316E-01    1.27       1.0  T
   4    -42.4771431 -0.130902E-02  0.152E-01    1.35       1.0  T
   5    -42.4771447 -0.157878E-05  0.739E-02    1.30       1.0  T
   6    -42.4772876 -0.142934E-03  0.149E-02    1.33       1.3  T
   7    -42.4772917 -0.413115E-05  0.673E-03    1.32       3.0  T
   8    -42.4772925 -0.727213E-06  0.364E-03    1.33       5.5  T
   9    -42.4772927 -0.206190E-06  0.132E-03    1.33      15.1  T
  10    -42.4772927 -0.145168E-07  0.652E-04    1.33      30.7  T
  11    -42.4772927 -0.765971E-08  0.222E-04    1.33      90.0  T
     SCC iter.                  ...        0 min,  0.014 sec
     gradient                   ...        0 min,  0.011 sec
 * total energy  :   -41.9101337 Eh     change       -0.3745041E+00 Eh
   gradient norm :     0.1991831 Eh/α   predicted    -0.3996450E+00 (   6.71%)
   displ. norm   :     0.0744360 α      lambda       -0.9757484E-02
   maximum displ.:     0.0571303 α      in ANC's #2, #1, #49, ...

........................................................................
.............................. CYCLE    6 ..............................
........................................................................

 iter      E             dE          RMSdq      gap      omega  full diag
   1    -42.4785172 -0.424785E+02  0.161E-01    1.33       0.0  T
   2    -42.4786704 -0.153207E-03  0.137E-01    1.32       1.0  T
   3    -42.4791158 -0.445397E-03  0.635E-02    1.31       1.0  T
   4    -42.4791777 -0.619743E-04  0.326E-02    1.33       1.0  T
   5    -42.4791673  0.104532E-04  0.210E-02    1.31       1.0  T
   6    -42.4791827 -0.154166E-04  0.437E-03    1.32       4.6  T
   7    -42.4791830 -0.325697E-06  0.151E-03    1.32      13.3  T
   8    -42.4791830 -0.255706E-07  0.808E-04    1.32      24.7  T
   9    -42.4791831 -0.768755E-08  0.377E-04    1.32      53.0  T
     SCC iter.                  ...        0 min,  0.011 sec
     gradient                   ...        0 min,  0.011 sec
 * total energy  :   -41.9175162 Eh     change       -0.7382488E-02 Eh
   gradient norm :     0.1522515 Eh/α   predicted    -0.4915030E-02 ( -33.42%)
   displ. norm   :     0.1626133 α      lambda       -0.1464072E-01
   maximum displ.:     0.1146812 α      in ANC's #1, #2, #48, ...

........................................................................
.............................. CYCLE    7 ..............................
........................................................................

 iter      E             dE          RMSdq      gap      omega  full diag
   1    -42.4830919 -0.424831E+02  0.256E-01    1.21       0.0  T
   2    -42.4821053  0.986618E-03  0.323E-01    1.41       1.0  T
   3    -42.4848441 -0.273878E-02  0.991E-02    1.28       1.0  T
   4    -42.4848031  0.409938E-04  0.671E-02    1.31       1.0  T
   5    -42.4848652 -0.621206E-04  0.272E-02    1.29       1.0  T
   6    -42.4848787 -0.134450E-04  0.822E-03    1.29       2.4  T
   7    -42.4848799 -0.124802E-05  0.392E-03    1.29       5.1  T
   8    -42.4848801 -0.188291E-06  0.193E-03    1.29      10.3  T
   9    -42.4848802 -0.462061E-07  0.990E-04    1.29      20.2  T
  10    -42.4848802 -0.215549E-07  0.378E-04    1.29      53.0  T
     SCC iter.                  ...        0 min,  0.012 sec
     gradient                   ...        0 min,  0.011 sec
 * total energy  :   -41.9288390 Eh     change       -0.1132287E-01 Eh
   gradient norm :     0.2058308 Eh/α   predicted    -0.7514396E-02 ( -33.64%)
   displ. norm   :     0.2511637 α      lambda       -0.2029922E-01
   maximum displ.:     0.1625032 α      in ANC's #1, #2, #12, ...

........................................................................
.............................. CYCLE    8 ..............................
........................................................................

 iter      E             dE          RMSdq      gap      omega  full diag
   1    -42.4836825 -0.424837E+02  0.536E-01    0.96       0.0  T
   2    -42.4760568  0.762574E-02  0.782E-01    1.64       1.0  T
   3    -42.4935149 -0.174581E-01  0.212E-01    1.24       1.0  T
   4    -42.4934806  0.343500E-04  0.138E-01    1.25       1.0  T
   5    -42.4937231 -0.242571E-03  0.574E-02    1.19       1.0  T
   6    -42.4938032 -0.800882E-04  0.230E-02    1.20       1.0  T
   7    -42.4938192 -0.160236E-04  0.852E-03    1.21       2.3  T
   8    -42.4938203 -0.109984E-05  0.520E-03    1.20       3.8  T
   9    -42.4938207 -0.316438E-06  0.193E-03    1.21      10.3  T
  10    -42.4938207 -0.787888E-07  0.747E-04    1.21      26.8  T
  11    -42.4938207 -0.675671E-08  0.424E-04    1.21      47.1  T
     SCC iter.                  ...        0 min,  0.013 sec
     gradient                   ...        0 min,  0.011 sec
 * total energy  :   -41.9433398 Eh     change       -0.1450073E-01 Eh
   gradient norm :     0.2465545 Eh/α   predicted    -0.1079029E-01 ( -25.59%)
   displ. norm   :     0.2199314 α      lambda       -0.1601194E-01
   maximum displ.:     0.1157112 α      in ANC's #1, #12, #40, ...

........................................................................
.............................. CYCLE    9 ..............................
........................................................................

 iter      E             dE          RMSdq      gap      omega  full diag
   1    -42.5015113 -0.425015E+02  0.373E-01    1.14       0.0  T
   2    -42.4994481  0.206311E-02  0.499E-01    1.45       1.0  T
   3    -42.5054277 -0.597960E-02  0.158E-01    1.24       1.0  T
   4    -42.5051227  0.305054E-03  0.136E-01    1.31       1.0  T
   5    -42.5054256 -0.302867E-03  0.536E-02    1.23       1.0  T
   6    -42.5055160 -0.904378E-04  0.112E-02    1.25       1.8  T
   7    -42.5055162 -0.242017E-06  0.962E-03    1.25       2.1  T
   8    -42.5055184 -0.216319E-05  0.383E-03    1.25       5.2  T
   9    -42.5055186 -0.233553E-06  0.117E-03    1.25      17.1  T
  10    -42.5055186 -0.156599E-07  0.634E-04    1.25      31.6  T
  11    -42.5055187 -0.416601E-08  0.257E-04    1.25      77.7  T
     SCC iter.                  ...        0 min,  0.013 sec
     gradient                   ...        0 min,  0.011 sec
 * total energy  :   -41.9533704 Eh     change       -0.1003058E-01 Eh
   gradient norm :     0.1331157 Eh/α   predicted    -0.8393389E-02 ( -16.32%)
   displ. norm   :     0.1852898 α      lambda       -0.6972097E-02
   maximum displ.:     0.1505273 α      in ANC's #1, #12, #40, ...

........................................................................
.............................. CYCLE   10 ..............................
........................................................................

 iter      E             dE          RMSdq      gap      omega  full diag
   1    -42.4952541 -0.424953E+02  0.475E-01    0.95       0.0  T
   2    -42.4833050  0.119491E-01  0.765E-01    1.58       1.0  T
   3    -42.5036910 -0.203860E-01  0.151E-01    1.20       1.0  T
   4    -42.5038443 -0.153370E-03  0.959E-02    1.21       1.0  T
   5    -42.5039168 -0.724708E-04  0.492E-02    1.14       1.0  T
   6    -42.5039959 -0.790581E-04  0.177E-02    1.16       1.1  T
   7    -42.5040076 -0.117497E-04  0.496E-03    1.17       4.0  T
   8    -42.5040080 -0.415912E-06  0.317E-03    1.17       6.3  T
   9    -42.5040081 -0.771449E-07  0.226E-03    1.17       8.9  T
  10    -42.5040083 -0.172002E-06  0.488E-04    1.17      41.0  T
  11    -42.5040083 -0.394525E-08  0.253E-04    1.17      79.0  T
     SCC iter.                  ...        0 min,  0.014 sec
     gradient                   ...        0 min,  0.011 sec
 * total energy  :   -41.9585856 Eh     change       -0.5215252E-02 Eh
   gradient norm :     0.1294276 Eh/α   predicted    -0.3606986E-02 ( -30.84%)
   displ. norm   :     0.1549723 α      lambda       -0.1007607E-01
   maximum displ.:     0.0635333 α      in ANC's #1, #12, #40, ...

........................................................................
.............................. CYCLE   11 ..............................
........................................................................

 iter      E             dE          RMSdq      gap      omega  full diag
   1    -42.5001724 -0.425002E+02  0.329E-01    1.01       0.0  T
   2    -42.4917667  0.840573E-02  0.603E-01    1.44       1.0  T
   3    -42.5044667 -0.127000E-01  0.128E-01    1.17       1.0  T
   4    -42.5045734 -0.106750E-03  0.844E-02    1.18       1.0  T
   5    -42.5046548 -0.813423E-04  0.328E-02    1.13       1.0  T
   6    -42.5046930 -0.381634E-04  0.953E-03    1.14       2.1  T
   7    -42.5046957 -0.279259E-05  0.421E-03    1.15       4.7  T
   8    -42.5046956  0.123306E-06  0.369E-03    1.15       5.4  T
   9    -42.5046961 -0.433416E-06  0.129E-03    1.15      15.5  T
  10    -42.5046961 -0.440321E-07  0.533E-04    1.15      37.5  T
  11    -42.5046961 -0.742120E-08  0.201E-04    1.15      99.6  T
     SCC iter.                  ...        0 min,  0.014 sec
     gradient                   ...        0 min,  0.011 sec
 * total energy  :   -41.9660364 Eh     change       -0.7450783E-02 Eh
   gradient norm :     0.1447767 Eh/α   predicted    -0.5159102E-02 ( -30.76%)
   displ. norm   :     0.2968522 α      lambda       -0.1147424E-01
   maximum displ.:     0.2430139 α      in ANC's #1, #12, #40, ...

........................................................................
.............................. CYCLE   12 ..............................
........................................................................

 iter      E             dE          RMSdq      gap      omega  full diag
   1    -42.4770480 -0.424770E+02  0.698E-01    0.74       0.0  T
   2    -42.4413044  0.357437E-01  0.119E+00    1.69       1.0  T
   3    -42.4942782 -0.529738E-01  0.209E-01    1.07       1.0  T
   4    -42.4950154 -0.737249E-03  0.106E-01    1.03       1.0  T
   5    -42.4948397  0.175750E-03  0.812E-02    0.97       1.0  T
   6    -42.4950755 -0.235871E-03  0.246E-02    1.00       1.0  T
   7    -42.4950996 -0.240407E-04  0.447E-03    1.02       4.5  T
   8    -42.4950990  0.573951E-06  0.493E-03    1.02       4.1  T
   9    -42.4950998 -0.782522E-06  0.158E-03    1.02      12.6  T
  10    -42.4950998 -0.640723E-07  0.309E-04    1.01      64.8  T
  11    -42.4950998 -0.243588E-09  0.215E-04    1.01      93.0  T
     SCC iter.                  ...        0 min,  0.014 sec
     gradient                   ...        0 min,  0.011 sec
 * total energy  :   -41.9740233 Eh     change       -0.7986955E-02 Eh
   gradient norm :     0.1333714 Eh/α   predicted    -0.6243471E-02 ( -21.83%)
   displ. norm   :     0.3306880 α      lambda       -0.1387331E-01
   maximum displ.:     0.2378513 α      in ANC's #1, #12, #40, ...

........................................................................
.............................. CYCLE   13 ..............................
........................................................................

 iter      E             dE          RMSdq      gap      omega  full diag
   1    -42.5023461 -0.425023E+02  0.530E-01    1.37       0.0  T
   2    -42.4881693  0.141769E-01  0.749E-01    0.91       1.0  T
   3    -42.5067804 -0.186111E-01  0.251E-01    1.30       1.0  T
   4    -42.5080412 -0.126087E-02  0.127E-01    1.18       1.0  T
   5    -42.5082025 -0.161248E-03  0.525E-02    1.19       1.0  T
   6    -42.5082686 -0.660706E-04  0.168E-02    1.20       1.2  T
   7    -42.5082764 -0.786857E-05  0.578E-03    1.20       3.5  T
   8    -42.5082769 -0.504541E-06  0.290E-03    1.20       6.9  T
   9    -42.5082770 -0.880786E-07  0.153E-03    1.20      13.1  T
  10    -42.5082771 -0.427039E-07  0.524E-04    1.20      38.2  T
  11    -42.5082771 -0.430281E-08  0.217E-04    1.20      92.2  T
     SCC iter.                  ...        0 min,  0.014 sec
     gradient                   ...        0 min,  0.011 sec
 * total energy  :   -41.9784198 Eh     change       -0.4396421E-02 Eh
   gradient norm :     0.3115023 Eh/α   predicted    -0.7695207E-02 (  75.03%)
   displ. norm   :     0.1564623 α      lambda       -0.9055710E-02
   maximum displ.:     0.1430218 α      in ANC's #1, #12, #33, ...

........................................................................
.............................. CYCLE   14 ..............................
........................................................................

 iter      E             dE          RMSdq      gap      omega  full diag
   1    -42.5025094 -0.425025E+02  0.175E-01    1.07       0.0  T
   2    -42.5013101  0.119937E-02  0.213E-01    1.23       1.0  T
   3    -42.5028170 -0.150688E-02  0.925E-02    1.09       1.0  T
   4    -42.5029500 -0.133015E-03  0.331E-02    1.12       1.0  T
   5    -42.5029655 -0.154959E-04  0.148E-02    1.12       1.4  T
   6    -42.5029718 -0.628741E-05  0.329E-03    1.12       6.1  T
   7    -42.5029719 -0.148813E-06  0.175E-03    1.12      11.5  T
   8    -42.5029719 -0.255551E-07  0.837E-04    1.12      23.9  T
   9    -42.5029719 -0.117343E-07  0.221E-04    1.12      90.4  T
     SCC iter.                  ...        0 min,  0.011 sec
     gradient                   ...        0 min,  0.011 sec
 * total energy  :   -41.9855322 Eh     change       -0.7112425E-02 Eh
   gradient norm :     0.1643753 Eh/α   predicted    -0.4638841E-02 ( -34.78%)
   displ. norm   :     0.1406001 α      lambda       -0.1059963E-01
   maximum displ.:     0.0715917 α      in ANC's #12, #9, #33, ...

........................................................................
.............................. CYCLE   15 ..............................
........................................................................

 iter      E             dE          RMSdq      gap      omega  full diag
   1    -42.5032180 -0.425032E+02  0.235E-01    1.22       0.0  T
   2    -42.4988114  0.440659E-02  0.413E-01    1.01       1.0  T
   3    -42.5049779 -0.616648E-02  0.867E-02    1.19       1.0  T
   4    -42.5050739 -0.960002E-04  0.487E-02    1.14       1.0  T
   5    -42.5050533  0.205642E-04  0.367E-02    1.17       1.0  T
   6    -42.5050958 -0.424746E-04  0.718E-03    1.16       2.8  T
   7    -42.5050968 -0.107929E-05  0.288E-03    1.16       6.9  T
   8    -42.5050969 -0.537652E-07  0.154E-03    1.16      13.0  T
   9    -42.5050969 -0.380189E-07  0.776E-04    1.16      25.8  T
  10    -42.5050970 -0.135461E-07  0.265E-04    1.16      75.5  T
     SCC iter.                  ...        0 min,  0.012 sec
     gradient                   ...        0 min,  0.011 sec
 * total energy  :   -41.9929975 Eh     change       -0.7465350E-02 Eh
   gradient norm :     0.0878647 Eh/α   predicted    -0.5404768E-02 ( -27.60%)
   displ. norm   :     0.3573517 α      lambda       -0.9723464E-02
   maximum displ.:     0.2874476 α      in ANC's #1, #12, #9, ...

........................................................................
.............................. CYCLE   16 ..............................
........................................................................

 iter      E             dE          RMSdq      gap      omega  full diag
   1    -42.5102200 -0.425102E+02  0.423E-01    1.45       0.0  T
   2    -42.4975451  0.126750E-01  0.689E-01    1.13       1.0  T
   3    -42.5142608 -0.167157E-01  0.168E-01    1.39       1.0  T
   4    -42.5143032 -0.423629E-04  0.938E-02    1.30       1.0  T
   5    -42.5144324 -0.129274E-03  0.486E-02    1.36       1.0  T
   6    -42.5145126 -0.802092E-04  0.998E-03    1.34       2.0  T
   7    -42.5145150 -0.236320E-05  0.426E-03    1.34       4.7  T
   8    -42.5145151 -0.112479E-06  0.246E-03    1.35       8.1  T
   9    -42.5145152 -0.113175E-06  0.102E-03    1.35      19.6  T
  10    -42.5145152 -0.193582E-07  0.322E-04    1.34      62.0  T
  11    -42.5145152 -0.131596E-08  0.166E-04    1.34     120.6  T
     SCC iter.                  ...        0 min,  0.014 sec
     gradient                   ...        0 min,  0.011 sec
 * total energy  :   -42.0000031 Eh     change       -0.7005604E-02 Eh
   gradient norm :     0.1368693 Eh/α   predicted    -0.5482700E-02 ( -21.74%)
   displ. norm   :     0.3168041 α      lambda       -0.6696713E-02
   maximum displ.:     0.2088392 α      in ANC's #1, #12, #2, ...

........................................................................
.............................. CYCLE   17 ..............................
........................................................................

 iter      E             dE          RMSdq      gap      omega  full diag
   1    -42.5064745 -0.425065E+02  0.402E-01    1.17       0.0  T
   2    -42.4996066  0.686798E-02  0.558E-01    1.56       1.0  T
   3    -42.5098315 -0.102249E-01  0.135E-01    1.28       1.0  T
   4    -42.5099048 -0.733205E-04  0.102E-01    1.31       1.0  T
   5    -42.5100561 -0.151266E-03  0.316E-02    1.30       1.0  T
   6    -42.5100754 -0.193690E-04  0.105E-02    1.30       1.9  T
   7    -42.5100789 -0.343244E-05  0.437E-03    1.30       4.6  T
   8    -42.5100789  0.185931E-07  0.333E-03    1.30       6.0  T
   9    -42.5100792 -0.292531E-06  0.135E-03    1.30      14.8  T
  10    -42.5100792 -0.501859E-07  0.277E-04    1.30      72.2  T
  11    -42.5100792 -0.602896E-10  0.179E-04    1.30     111.4  T
     SCC iter.                  ...        0 min,  0.014 sec
     gradient                   ...        0 min,  0.011 sec
 * total energy  :   -42.0040579 Eh     change       -0.4054703E-02 Eh
   gradient norm :     0.1934853 Eh/α   predicted    -0.3684643E-02 (  -9.13%)
   displ. norm   :     0.1312083 α      lambda       -0.4637564E-02
   maximum displ.:     0.0643724 α      in ANC's #12, #2, #9, ...

........................................................................
.............................. CYCLE   18 ..............................
........................................................................

 iter      E             dE          RMSdq      gap      omega  full diag
   1    -42.5039481 -0.425039E+02  0.307E-01    1.15       0.0  T
   2    -42.4970865  0.686161E-02  0.521E-01    1.48       1.0  T
   3    -42.5067954 -0.970885E-02  0.740E-02    1.25       1.0  T
   4    -42.5068252 -0.298518E-04  0.544E-02    1.26       1.0  T
   5    -42.5068554 -0.301886E-04  0.201E-02    1.25       1.0  T
   6    -42.5068627 -0.725392E-05  0.688E-03    1.25       2.9  T
   7    -42.5068643 -0.167898E-05  0.205E-03    1.25       9.8  T
   8    -42.5068644 -0.396071E-07  0.133E-03    1.25      15.0  T
   9    -42.5068644 -0.231823E-07  0.799E-04    1.25      25.0  T
  10    -42.5068644 -0.171174E-07  0.128E-04    1.25     156.3  T
     SCC iter.                  ...        0 min,  0.012 sec
     gradient                   ...        0 min,  0.011 sec
 * total energy  :   -42.0077022 Eh     change       -0.3644378E-02 Eh
   gradient norm :     0.1259679 Eh/α   predicted    -0.2358891E-02 ( -35.27%)
   displ. norm   :     0.1636225 α      lambda       -0.7814057E-02
   maximum displ.:     0.0908404 α      in ANC's #2, #12, #9, ...

........................................................................
.............................. CYCLE   19 ..............................
........................................................................

 iter      E             dE          RMSdq      gap      omega  full diag
   1    -42.5091054 -0.425091E+02  0.313E-01    1.17       0.0  T
   2    -42.5049122  0.419329E-02  0.422E-01    1.41       1.0  T
   3    -42.5108960 -0.598385E-02  0.123E-01    1.22       1.0  T
   4    -42.5111106 -0.214607E-03  0.595E-02    1.25       1.0  T
   5    -42.5111503 -0.396722E-04  0.190E-02    1.24       1.1  T
   6    -42.5111593 -0.900211E-05  0.596E-03    1.24       3.4  T
   7    -42.5111601 -0.828088E-06  0.262E-03    1.25       7.6  T
   8    -42.5111602 -0.576105E-07  0.137E-03    1.25      14.6  T
   9    -42.5111602 -0.205982E-07  0.720E-04    1.25      27.8  T
  10    -42.5111602 -0.131507E-07  0.187E-04    1.25     107.0  T
     SCC iter.                  ...        0 min,  0.012 sec
     gradient                   ...        0 min,  0.011 sec
 * total energy  :   -42.0130916 Eh     change       -0.5389375E-02 Eh
   gradient norm :     0.0807469 Eh/α   predicted    -0.4011708E-02 ( -25.56%)
   displ. norm   :     0.1333087 α      lambda       -0.4535183E-02
   maximum displ.:     0.0766866 α      in ANC's #2, #12, #9, ...

........................................................................
.............................. CYCLE   20 ..............................
........................................................................

 iter      E             dE          RMSdq      gap      omega  full diag
   1    -42.5185231 -0.425185E+02  0.191E-01    1.30       0.0  T
   2    -42.5184867  0.363309E-04  0.150E-01    1.28       1.0  T
   3    -42.5187686 -0.281857E-03  0.863E-02    1.29       1.0  T
   4    -42.5188004 -0.318562E-04  0.471E-02    1.29       1.0  T
   5    -42.5188394 -0.390052E-04  0.226E-02    1.28       1.0  T
   6    -42.5188565 -0.170185E-04  0.500E-03    1.29       4.0  T
   7    -42.5188567 -0.258137E-06  0.319E-03    1.29       6.3  T
   8    -42.5188569 -0.144754E-06  0.135E-03    1.29      14.8  T
   9    -42.5188569 -0.283904E-07  0.371E-04    1.29      54.0  T
  10    -42.5188569 -0.150835E-08  0.204E-04    1.29      97.9  T
     SCC iter.                  ...        0 min,  0.012 sec
     gradient                   ...        0 min,  0.011 sec
 * total energy  :   -42.0164256 Eh     change       -0.3334015E-02 Eh
   gradient norm :     0.1048868 Eh/α   predicted    -0.2307976E-02 ( -30.77%)
   displ. norm   :     0.1516172 α      lambda       -0.4158976E-02
   maximum displ.:     0.0817060 α      in ANC's #2, #12, #35, ...
 * RMSD in coord.:     0.6296619 α      energy gain  -0.2403644E+02 Eh

generating ANC from model Hessian ...
Using Lindh-Hessian (1995)
 Shifting diagonal of input Hessian by    2.1920972319408708E-002
 Lowest  eigenvalues of input Hessian
    0.010000    0.012872    0.000000    0.000000    0.000000    0.000000
    0.000000    0.000000    0.022932    0.023838    0.024756    0.026723
    0.027815    0.028283    0.031089    0.031475    0.033448    0.039780
 Highest eigenvalues
    2.051590    2.122290    2.153300    2.374839    2.666777    8.487925


........................................................................
.............................. CYCLE   21 ..............................
........................................................................

 iter      E             dE          RMSdq      gap      omega  full diag
   1    -42.5266838 -0.425267E+02  0.207E-01    1.36       0.0  T
   2    -42.5264552  0.228662E-03  0.195E-01    1.29       1.0  T
   3    -42.5270719 -0.616794E-03  0.847E-02    1.35       1.0  T
   4    -42.5269441  0.127832E-03  0.806E-02    1.31       1.0  T
   5    -42.5271343 -0.190218E-03  0.270E-02    1.34       1.0  T
   6    -42.5271518 -0.175119E-04  0.548E-03    1.33       3.6  T
   7    -42.5271521 -0.210451E-06  0.338E-03    1.33       5.9  T
   8    -42.5271522 -0.156002E-06  0.142E-03    1.33      14.1  T
   9    -42.5271522 -0.353127E-07  0.399E-04    1.33      50.2  T
  10    -42.5271522 -0.143726E-08  0.244E-04    1.33      81.8  T
     SCC iter.                  ...        0 min,  0.012 sec
     gradient                   ...        0 min,  0.011 sec
 * total energy  :   -42.0194281 Eh     change       -0.3002510E-02 Eh
   gradient norm :     0.1022793 Eh/α   predicted     0.0000000E+00 (-100.00%)
   displ. norm   :     0.3881275 α      lambda       -0.1472413E-01
   maximum displ.:     0.2695817 α      in ANC's #7, #15, #38, ...

........................................................................
.............................. CYCLE   22 ..............................
........................................................................

 iter      E             dE          RMSdq      gap      omega  full diag
   1    -42.5513264 -0.425513E+02  0.319E-01    1.41       0.0  T
   2    -42.5511549  0.171449E-03  0.209E-01    1.35       1.0  T
   3    -42.5499047  0.125020E-02  0.224E-01    1.46       1.0  T
   4    -42.5514800 -0.157527E-02  0.467E-02    1.38       1.0  T
   5    -42.5515257 -0.457302E-04  0.143E-02    1.38       1.4  T
   6    -42.5515303 -0.459075E-05  0.573E-03    1.39       3.5  T
   7    -42.5515305 -0.164571E-06  0.347E-03    1.38       5.8  T
   8    -42.5515307 -0.202771E-06  0.153E-03    1.39      13.1  T
   9    -42.5515307 -0.375127E-07  0.472E-04    1.39      42.4  T
  10    -42.5515307 -0.222237E-08  0.245E-04    1.39      81.6  T
     SCC iter.                  ...        0 min,  0.013 sec
     gradient                   ...        0 min,  0.011 sec
 * total energy  :   -42.0297207 Eh     change       -0.1029258E-01 Eh
   gradient norm :     0.0702911 Eh/α   predicted    -0.8477963E-02 ( -17.63%)
   displ. norm   :     0.4760896 α      lambda       -0.8710289E-02
   maximum displ.:     0.3773926 α      in ANC's #7, #15, #38, ...

........................................................................
.............................. CYCLE   23 ..............................
........................................................................

 iter      E             dE          RMSdq      gap      omega  full diag
   1    -42.5652554 -0.425653E+02  0.321E-01    1.47       0.0  T
   2    -42.5653133 -0.578979E-04  0.181E-01    1.46       1.0  T
   3    -42.5649727  0.340685E-03  0.138E-01    1.48       1.0  T
   4    -42.5653661 -0.393436E-03  0.300E-02    1.46       1.0  T
   5    -42.5653881 -0.220478E-04  0.114E-02    1.46       1.8  T
   6    -42.5653907 -0.259046E-05  0.537E-03    1.46       3.7  T
   7    -42.5653911 -0.383359E-06  0.365E-03    1.46       5.5  T
   8    -42.5653914 -0.272431E-06  0.110E-03    1.46      18.2  T
   9    -42.5653914 -0.263044E-07  0.358E-04    1.46      55.8  T
  10    -42.5653914 -0.882309E-09  0.193E-04    1.46     103.7  T
     SCC iter.                  ...        0 min,  0.012 sec
     gradient                   ...        0 min,  0.011 sec
 * total energy  :   -42.0351890 Eh     change       -0.5468334E-02 Eh
   gradient norm :     0.0373062 Eh/α   predicted    -0.5342556E-02 (  -2.30%)
   displ. norm   :     0.4193383 α      lambda       -0.3724175E-02
   maximum displ.:     0.3663407 α      in ANC's #7, #2, #9, ...

........................................................................
.............................. CYCLE   24 ..............................
........................................................................

 iter      E             dE          RMSdq      gap      omega  full diag
   1    -42.5642956 -0.425643E+02  0.221E-01    1.50       0.0  T
   2    -42.5640748  0.220791E-03  0.166E-01    1.55       1.0  T
   3    -42.5641806 -0.105791E-03  0.129E-01    1.48       1.0  T
   4    -42.5644616 -0.281004E-03  0.494E-02    1.53       1.0  T
   5    -42.5645392 -0.776253E-04  0.106E-02    1.51       1.9  T
   6    -42.5645424 -0.321129E-05  0.288E-03    1.51       6.9  T
   7    -42.5645425 -0.931403E-07  0.174E-03    1.51      11.5  T
   8    -42.5645426 -0.406400E-07  0.412E-04    1.51      48.5  T
   9    -42.5645426 -0.253472E-08  0.129E-04    1.51     154.6  T
     SCC iter.                  ...        0 min,  0.011 sec
     gradient                   ...        0 min,  0.011 sec
 * total energy  :   -42.0381969 Eh     change       -0.3007875E-02 Eh
   gradient norm :     0.0241593 Eh/α   predicted    -0.2190948E-02 ( -27.16%)
   displ. norm   :     0.6975556 α      lambda       -0.5471550E-02
   maximum displ.:     0.5809271 α      in ANC's #7, #2, #9, ...

........................................................................
.............................. CYCLE   25 ..............................
........................................................................

 iter      E             dE          RMSdq      gap      omega  full diag
   1    -42.5594216 -0.425594E+02  0.401E-01    1.52       0.0  T
   2    -42.5589676  0.453937E-03  0.284E-01    1.60       1.0  T
   3    -42.5594512 -0.483538E-03  0.207E-01    1.49       1.0  T
   4    -42.5598403 -0.389153E-03  0.133E-01    1.59       1.0  T
   5    -42.5604097 -0.569355E-03  0.127E-02    1.54       1.6  T
   6    -42.5604138 -0.413349E-05  0.597E-03    1.54       3.3  T
   7    -42.5604141 -0.327706E-06  0.261E-03    1.54       7.7  T
   8    -42.5604142 -0.834531E-07  0.664E-04    1.54      30.1  T
   9    -42.5604142 -0.628260E-08  0.300E-04    1.54      66.7  T
     SCC iter.                  ...        0 min,  0.011 sec
     gradient                   ...        0 min,  0.011 sec
 * total energy  :   -42.0436807 Eh     change       -0.5483787E-02 Eh
   gradient norm :     0.0634456 Eh/α   predicted    -0.4067001E-02 ( -25.84%)
   displ. norm   :     0.9203483 α      lambda       -0.8575460E-02
   maximum displ.:     0.7569376 α      in ANC's #7, #2, #9, ...

........................................................................
.............................. CYCLE   26 ..............................
........................................................................

 iter      E             dE          RMSdq      gap      omega  full diag
   1    -42.5444806 -0.425445E+02  0.594E-01    1.39       0.0  T
   2    -42.5399087  0.457191E-02  0.559E-01    1.68       1.0  T
   3    -42.5460331 -0.612440E-02  0.302E-01    1.38       1.0  T
   4    -42.5466998 -0.666667E-03  0.242E-01    1.56       1.0  T
   5    -42.5483303 -0.163046E-02  0.360E-02    1.48       1.0  T
   6    -42.5483622 -0.319265E-04  0.115E-02    1.47       1.7  T
   7    -42.5483635 -0.130371E-05  0.446E-03    1.47       4.5  T
   8    -42.5483636 -0.145012E-06  0.164E-03    1.47      12.2  T
   9    -42.5483637 -0.301339E-07  0.673E-04    1.47      29.7  T
  10    -42.5483637 -0.231663E-08  0.423E-04    1.47      47.2  T
     SCC iter.                  ...        0 min,  0.012 sec
     gradient                   ...        0 min,  0.011 sec
 * total energy  :   -42.0508343 Eh     change       -0.7153636E-02 Eh
   gradient norm :     0.1975427 Eh/α   predicted    -0.7919691E-02 (  10.71%)
   displ. norm   :     0.7147028 α      lambda       -0.1067108E-01
   maximum displ.:     0.3237697 α      in ANC's #7, #26, #15, ...

........................................................................
.............................. CYCLE   27 ..............................
........................................................................

 iter      E             dE          RMSdq      gap      omega  full diag
   1    -42.5008237 -0.425008E+02  0.971E-01    0.96       0.0  T
   2    -42.4693949  0.314288E-01  0.116E+00    1.93       1.0  T
   3    -42.5116757 -0.422809E-01  0.447E-01    1.10       1.0  T
   4    -42.5137202 -0.204452E-02  0.261E-01    1.31       1.0  T
   5    -42.5151624 -0.144217E-02  0.648E-02    1.24       1.0  T
   6    -42.5152476 -0.852325E-04  0.265E-02    1.24       1.0  T
   7    -42.5152637 -0.160460E-04  0.111E-02    1.25       1.8  T
   8    -42.5152661 -0.237209E-05  0.465E-03    1.25       4.3  T
   9    -42.5152664 -0.296628E-06  0.186E-03    1.24      10.8  T
  10    -42.5152664 -0.660210E-07  0.776E-04    1.25      25.8  T
  11    -42.5152664 -0.696769E-08  0.352E-04    1.25      56.8  T
     SCC iter.                  ...        0 min,  0.014 sec
     gradient                   ...        0 min,  0.011 sec
 * total energy  :   -42.0437111 Eh     change        0.7123245E-02 Eh
   gradient norm :     0.2276990 Eh/α   predicted    -0.8061024E-02 (-213.17%)
   displ. norm   :     0.4389202 α      lambda       -0.2370450E-01
   maximum displ.:     0.2219125 α      in ANC's #7, #2, #15, ...

........................................................................
.............................. CYCLE   28 ..............................
........................................................................

 iter      E             dE          RMSdq      gap      omega  full diag
   1    -42.5367475 -0.425367E+02  0.484E-01    1.43       0.0  T
   2    -42.5274653  0.928215E-02  0.588E-01    1.05       1.0  T
   3    -42.5368859 -0.942055E-02  0.302E-01    1.43       1.0  T
   4    -42.5388265 -0.194060E-02  0.989E-02    1.30       1.0  T
   5    -42.5390414 -0.214928E-03  0.142E-02    1.31       1.4  T
   6    -42.5390442 -0.280895E-05  0.808E-03    1.32       2.5  T
   7    -42.5390445 -0.237197E-06  0.504E-03    1.32       4.0  T
   8    -42.5390450 -0.526042E-06  0.139E-03    1.32      14.4  T
   9    -42.5390450 -0.272141E-07  0.612E-04    1.32      32.7  T
  10    -42.5390450 -0.296729E-08  0.298E-04    1.32      67.1  T
     SCC iter.                  ...        0 min,  0.012 sec
     gradient                   ...        0 min,  0.011 sec
 * total energy  :   -42.0580646 Eh     change       -0.1435351E-01 Eh
   gradient norm :     0.1881274 Eh/α   predicted    -0.1413547E-01 (  -1.52%)
   displ. norm   :     0.4379592 α      lambda       -0.7430786E-02
   maximum displ.:     0.3146673 α      in ANC's #7, #2, #1, ...

........................................................................
.............................. CYCLE   29 ..............................
........................................................................

 iter      E             dE          RMSdq      gap      omega  full diag
   1    -42.5479686 -0.425480E+02  0.280E-01    1.26       0.0  T
   2    -42.5476690  0.299638E-03  0.194E-01    1.19       1.0  T
   3    -42.5463330  0.133603E-02  0.244E-01    1.35       1.0  T
   4    -42.5480375 -0.170459E-02  0.747E-02    1.22       1.0  T
   5    -42.5482069 -0.169381E-03  0.215E-02    1.25       1.0  T
   6    -42.5482237 -0.167370E-04  0.427E-03    1.24       4.7  T
   7    -42.5482238 -0.116390E-06  0.161E-03    1.24      12.4  T
   8    -42.5482238 -0.868292E-08  0.680E-04    1.24      29.4  T
   9    -42.5482238 -0.573617E-08  0.278E-04    1.24      71.9  T
     SCC iter.                  ...        0 min,  0.011 sec
     gradient                   ...        0 min,  0.011 sec
 * total energy  :   -42.0631788 Eh     change       -0.5114209E-02 Eh
   gradient norm :     0.2353156 Eh/α   predicted    -0.4428055E-02 ( -13.42%)
   displ. norm   :     0.3497101 α      lambda       -0.1460122E-01
   maximum displ.:     0.1789521 α      in ANC's #1, #17, #20, ...

........................................................................
.............................. CYCLE   30 ..............................
........................................................................

 iter      E             dE          RMSdq      gap      omega  full diag
   1    -42.5738398 -0.425738E+02  0.575E-01    1.40       0.0  T
   2    -42.5385882  0.352516E-01  0.106E+00    0.81       1.0  T
   3    -42.5789384 -0.403503E-01  0.279E-01    1.29       1.0  T
   4    -42.5805514 -0.161291E-02  0.103E-01    1.18       1.0  T
   5    -42.5806423 -0.909252E-04  0.316E-02    1.18       1.0  T
   6    -42.5806729 -0.306680E-04  0.118E-02    1.19       1.7  T
   7    -42.5806752 -0.230329E-05  0.448E-03    1.20       4.5  T
   8    -42.5806753 -0.600410E-07  0.261E-03    1.20       7.7  T
   9    -42.5806755 -0.176257E-06  0.973E-04    1.20      20.6  T
  10    -42.5806755 -0.162586E-07  0.315E-04    1.20      63.4  T
     SCC iter.                  ...        0 min,  0.012 sec
     gradient                   ...        0 min,  0.011 sec
 * total energy  :   -42.0700579 Eh     change       -0.6879042E-02 Eh
   gradient norm :     0.2276641 Eh/α   predicted    -0.8193463E-02 (  19.11%)
   displ. norm   :     0.5428880 α      lambda       -0.2082965E-01
   maximum displ.:     0.3687775 α      in ANC's #7, #1, #2, ...

........................................................................
.............................. CYCLE   31 ..............................
........................................................................

 iter      E             dE          RMSdq      gap      omega  full diag
   1    -42.6055443 -0.426055E+02  0.407E-01    1.04       0.0  T
   2    -42.6059474 -0.403171E-03  0.223E-01    1.03       1.0  T
   3    -42.6058624  0.850389E-04  0.129E-01    1.06       1.0  T
   4    -42.6057330  0.129388E-03  0.970E-02    1.00       1.0  T
   5    -42.6060039 -0.270939E-03  0.372E-02    1.06       1.0  T
   6    -42.6060551 -0.511805E-04  0.850E-03    1.04       2.4  T
   7    -42.6060558 -0.687053E-06  0.455E-03    1.04       4.4  T
   8    -42.6060562 -0.426551E-06  0.129E-03    1.04      15.6  T
   9    -42.6060563 -0.121940E-07  0.618E-04    1.04      32.3  T
  10    -42.6060563 -0.364153E-08  0.206E-04    1.04      96.9  T
     SCC iter.                  ...        0 min,  0.012 sec
     gradient                   ...        0 min,  0.011 sec
 * total energy  :   -42.0821594 Eh     change       -0.1210157E-01 Eh
   gradient norm :     0.1043924 Eh/α   predicted    -0.1348436E-01 (  11.43%)
   displ. norm   :     0.4724564 α      lambda       -0.2078393E-01
   maximum displ.:     0.3340650 α      in ANC's #15, #20, #21, ...

........................................................................
.............................. CYCLE   32 ..............................
........................................................................

 iter      E             dE          RMSdq      gap      omega  full diag
   1    -42.5968844 -0.425969E+02  0.576E-01    0.69       0.0  T
   2    -42.5534978  0.433867E-01  0.126E+00    1.72       1.0  T
   3    -42.6051541 -0.516564E-01  0.350E-01    1.06       1.0  T
   4    -42.6066434 -0.148923E-02  0.123E-01    0.93       1.0  T
   5    -42.6066829 -0.395180E-04  0.765E-02    0.90       1.0  T
   6    -42.6069085 -0.225589E-03  0.215E-02    0.93       1.0  T
   7    -42.6069238 -0.153043E-04  0.651E-03    0.94       3.1  T
   8    -42.6069245 -0.777967E-06  0.197E-03    0.94      10.2  T
   9    -42.6069245  0.365147E-07  0.172E-03    0.94      11.6  T
  10    -42.6069246 -0.101795E-06  0.241E-04    0.94      83.1  T
  11    -42.6069246 -0.243602E-09  0.849E-05    0.94     235.6  T
     SCC iter.                  ...        0 min,  0.013 sec
     gradient                   ...        0 min,  0.011 sec
 * total energy  :   -42.0909551 Eh     change       -0.8795652E-02 Eh
   gradient norm :     0.0919720 Eh/α   predicted    -0.1271162E-01 (  44.52%)
   displ. norm   :     0.6860516 α      lambda       -0.2352549E-01
   maximum displ.:     0.5214728 α      in ANC's #7, #15, #30, ...

........................................................................
.............................. CYCLE   33 ..............................
........................................................................

 iter      E             dE          RMSdq      gap      omega  full diag
   1    -42.6050541 -0.426051E+02  0.398E-01    0.96       0.0  T
   2    -42.6050471  0.699611E-05  0.324E-01    0.97       1.0  T
   3    -42.6060991 -0.105205E-02  0.177E-01    0.99       1.0  T
   4    -42.6055241  0.575000E-03  0.143E-01    0.90       1.0  T
   5    -42.6062748 -0.750731E-03  0.675E-02    1.00       1.0  T
   6    -42.6064074 -0.132557E-03  0.742E-03    0.97       2.7  T
   7    -42.6064075 -0.660921E-07  0.410E-03    0.97       4.9  T
   8    -42.6064076 -0.177609E-06  0.133E-03    0.97      15.0  T
   9    -42.6064077 -0.332955E-07  0.603E-04    0.97      33.2  T
  10    -42.6064077 -0.585370E-08  0.271E-04    0.97      73.8  T
     SCC iter.                  ...        0 min,  0.012 sec
     gradient                   ...        0 min,  0.011 sec
 * total energy  :   -42.0981207 Eh     change       -0.7165646E-02 Eh
   gradient norm :     0.0817954 Eh/α   predicted    -0.1729911E-01 ( 141.42%)
   displ. norm   :     0.4927161 α      lambda       -0.9130492E-02
   maximum displ.:     0.3717333 α      in ANC's #7, #20, #2, ...

........................................................................
.............................. CYCLE   34 ..............................
........................................................................

 iter      E             dE          RMSdq      gap      omega  full diag
   1    -42.6100738 -0.426101E+02  0.504E-01    1.30       0.0  T
   2    -42.5517639  0.583100E-01  0.131E+00    0.46       1.0  T
   3    -42.6173629 -0.655991E-01  0.162E-01    1.08       1.0  T
   4    -42.6174483 -0.853177E-04  0.901E-02    1.01       1.0  T
   5    -42.6175713 -0.123075E-03  0.387E-02    1.02       1.0  T
   6    -42.6176177 -0.463276E-04  0.146E-02    1.03       1.4  T
   7    -42.6176238 -0.610019E-05  0.378E-03    1.03       5.3  T
   8    -42.6176236  0.118039E-06  0.318E-03    1.04       6.3  T
   9    -42.6176240 -0.359493E-06  0.936E-04    1.03      21.4  T
  10    -42.6176240 -0.242577E-07  0.257E-04    1.03      77.9  T
     SCC iter.                  ...        0 min,  0.012 sec
     gradient                   ...        0 min,  0.011 sec
 * total energy  :   -42.1014312 Eh     change       -0.3310437E-02 Eh
   gradient norm :     0.1042657 Eh/α   predicted    -0.5673547E-02 (  71.38%)
   displ. norm   :     0.5037137 α      lambda       -0.1089147E-01
   maximum displ.:     0.2602988 α      in ANC's #7, #15, #2, ...

........................................................................
.............................. CYCLE   35 ..............................
........................................................................

 iter      E             dE          RMSdq      gap      omega  full diag
   1    -42.6250975 -0.426251E+02  0.678E-01    1.56       0.0  T
   2    -42.5341772  0.909202E-01  0.164E+00    0.44       1.0  T
   3    -42.6356608 -0.101484E+00  0.272E-01    1.29       1.0  T
   4    -42.6366843 -0.102353E-02  0.111E-01    1.15       1.0  T
   5    -42.6370052 -0.320882E-03  0.393E-02    1.16       1.0  T
   6    -42.6370429 -0.376640E-04  0.135E-02    1.17       1.5  T
   7    -42.6370476 -0.472328E-05  0.506E-03    1.17       4.0  T
   8    -42.6370475  0.161267E-06  0.395E-03    1.18       5.1  T
   9    -42.6370479 -0.467780E-06  0.136E-03    1.17      14.8  T
  10    -42.6370480 -0.585434E-07  0.261E-04    1.17      76.7  T
  11    -42.6370480 -0.233378E-09  0.115E-04    1.17     174.3  T
     SCC iter.                  ...        0 min,  0.013 sec
     gradient                   ...        0 min,  0.011 sec
 * total energy  :   -42.1011412 Eh     change        0.2899218E-03 Eh
   gradient norm :     0.0719266 Eh/α   predicted    -0.6827470E-02 (*******%)
   displ. norm   :     0.2494924 α      lambda       -0.8398911E-02
   maximum displ.:     0.2015283 α      in ANC's #2, #15, #7, ...

........................................................................
.............................. CYCLE   36 ..............................
........................................................................

 iter      E             dE          RMSdq      gap      omega  full diag
   1    -42.6234305 -0.426234E+02  0.413E-01    0.94       0.0  T
   2    -42.6027408  0.206897E-01  0.843E-01    1.69       1.0  T
   3    -42.6284801 -0.257393E-01  0.129E-01    1.16       1.0  T
   4    -42.6285094 -0.292781E-04  0.628E-02    1.13       1.0  T
   5    -42.6285215 -0.121326E-04  0.305E-02    1.12       1.0  T
   6    -42.6285548 -0.333427E-04  0.764E-03    1.13       2.6  T
   7    -42.6285560 -0.121969E-05  0.363E-03    1.14       5.5  T
   8    -42.6285563 -0.259012E-06  0.151E-03    1.14      13.3  T
   9    -42.6285564 -0.494546E-07  0.680E-04    1.14      29.4  T
  10    -42.6285564 -0.124658E-07  0.203E-04    1.14      98.7  T
     SCC iter.                  ...        0 min,  0.012 sec
     gradient                   ...        0 min,  0.011 sec
 * total energy  :   -42.1057774 Eh     change       -0.4636168E-02 Eh
   gradient norm :     0.0294910 Eh/α   predicted    -0.4460865E-02 (  -3.78%)
   displ. norm   :     0.2253852 α      lambda       -0.1305675E-02
   maximum displ.:     0.1534326 α      in ANC's #2, #7, #17, ...

........................................................................
.............................. CYCLE   37 ..............................
........................................................................

 iter      E             dE          RMSdq      gap      omega  full diag
   1    -42.6300569 -0.426301E+02  0.143E-01    1.21       0.0  T
   2    -42.6289093  0.114759E-02  0.195E-01    1.06       1.0  T
   3    -42.6300570 -0.114767E-02  0.941E-02    1.20       1.0  T
   4    -42.6302360 -0.179047E-03  0.213E-02    1.16       1.0  T
   5    -42.6302495 -0.134498E-04  0.460E-03    1.16       4.3  T
   6    -42.6302501 -0.571183E-06  0.180E-03    1.16      11.1  T
   7    -42.6302501 -0.304585E-07  0.915E-04    1.16      21.9  T
   8    -42.6302501 -0.170768E-07  0.253E-04    1.16      78.9  T
     SCC iter.                  ...        0 min,  0.010 sec
     gradient                   ...        0 min,  0.011 sec
 * total energy  :   -42.1066796 Eh     change       -0.9021519E-03 Eh
   gradient norm :     0.0423633 Eh/α   predicted    -0.6860134E-03 ( -23.96%)
   displ. norm   :     0.1964440 α      lambda       -0.1337589E-02
   maximum displ.:     0.1095405 α      in ANC's #2, #20, #17, ...

........................................................................
.............................. CYCLE   38 ..............................
........................................................................

 iter      E             dE          RMSdq      gap      omega  full diag
   1    -42.6300610 -0.426301E+02  0.240E-01    1.35       0.0  T
   2    -42.6218175  0.824355E-02  0.494E-01    0.97       1.0  T
   3    -42.6311303 -0.931282E-02  0.107E-01    1.28       1.0  T
   4    -42.6313320 -0.201708E-03  0.283E-02    1.24       1.0  T
   5    -42.6313490 -0.170338E-04  0.720E-03    1.24       2.8  T
   6    -42.6313501 -0.107196E-05  0.333E-03    1.23       6.0  T
   7    -42.6313503 -0.158532E-06  0.157E-03    1.23      12.7  T
   8    -42.6313503 -0.283225E-07  0.519E-04    1.23      38.5  T
   9    -42.6313503 -0.613259E-08  0.206E-04    1.23      97.3  T
     SCC iter.                  ...        0 min,  0.011 sec
     gradient                   ...        0 min,  0.011 sec
 * total energy  :   -42.1073687 Eh     change       -0.6891364E-03 Eh
   gradient norm :     0.0165021 Eh/α   predicted    -0.6946099E-03 (   0.79%)
   displ. norm   :     0.2221397 α      lambda       -0.9536446E-03
   maximum displ.:     0.1378489 α      in ANC's #2, #7, #6, ...

........................................................................
.............................. CYCLE   39 ..............................
........................................................................

 iter      E             dE          RMSdq      gap      omega  full diag
   1    -42.6305157 -0.426305E+02  0.278E-01    1.40       0.0  T
   2    -42.6172327  0.132830E-01  0.636E-01    0.90       1.0  T
   3    -42.6325068 -0.152741E-01  0.917E-02    1.28       1.0  T
   4    -42.6326024 -0.955916E-04  0.347E-02    1.24       1.0  T
   5    -42.6326276 -0.252159E-04  0.978E-03    1.25       2.0  T
   6    -42.6326296 -0.200309E-05  0.404E-03    1.25       5.0  T
   7    -42.6326299 -0.352238E-06  0.150E-03    1.25      13.3  T
   8    -42.6326299 -0.118154E-07  0.947E-04    1.25      21.1  T
   9    -42.6326300 -0.270072E-07  0.222E-04    1.25      89.9  T
     SCC iter.                  ...        0 min,  0.011 sec
     gradient                   ...        0 min,  0.011 sec
 * total energy  :   -42.1076642 Eh     change       -0.2955047E-03 Eh
   gradient norm :     0.0333603 Eh/α   predicted    -0.5003554E-03 (  69.32%)
   displ. norm   :     0.0808390 α      lambda       -0.3804274E-03
   maximum displ.:     0.0477120 α      in ANC's #2, #7, #17, ...

........................................................................
.............................. CYCLE   40 ..............................
........................................................................

 iter      E             dE          RMSdq      gap      omega  full diag
   1    -42.6345219 -0.426345E+02  0.459E-02    1.25       0.0  T
   2    -42.6344689  0.529224E-04  0.533E-02    1.28       1.0  T
   3    -42.6345258 -0.568307E-04  0.266E-02    1.25       1.0  T
   4    -42.6345272 -0.138598E-05  0.180E-02    1.26       1.1  T
   5    -42.6345382 -0.110049E-04  0.231E-03    1.26       8.6  T
   6    -42.6345383 -0.104604E-06  0.106E-03    1.26      18.8  T
   7    -42.6345383 -0.989808E-08  0.482E-04    1.26      41.5  T
   8    -42.6345383 -0.364140E-08  0.147E-04    1.26     136.5  T
     SCC iter.                  ...        0 min,  0.010 sec
     gradient                   ...        0 min,  0.011 sec
 * total energy  :   -42.1078799 Eh     change       -0.2156948E-03 Eh
   gradient norm :     0.0066824 Eh/α   predicted    -0.1914569E-03 ( -11.24%)
   displ. norm   :     0.0680534 α      lambda       -0.1511679E-03
   maximum displ.:     0.0318931 α      in ANC's #13, #4, #10, ...

........................................................................
.............................. CYCLE   41 ..............................
........................................................................

 iter      E             dE          RMSdq      gap      omega  full diag
   1    -42.6343639 -0.426344E+02  0.407E-02    1.27       0.0  T
   2    -42.6343434  0.204540E-04  0.326E-02    1.25       1.0  T
   3    -42.6343248  0.185887E-04  0.395E-02    1.28       1.0  T
   4    -42.6343684 -0.435797E-04  0.918E-03    1.26       2.2  T
   5    -42.6343704 -0.203862E-05  0.225E-03    1.26       8.9  T
   6    -42.6343706 -0.119705E-06  0.876E-04    1.26      22.8  T
   7    -42.6343706 -0.650370E-08  0.415E-04    1.26      48.2  T
     SCC iter.                  ...        0 min,  0.009 sec
     gradient                   ...        0 min,  0.011 sec
 * total energy  :   -42.1079923 Eh     change       -0.1123843E-03 Eh
   gradient norm :     0.0060031 Eh/α   predicted    -0.7593969E-04 ( -32.43%)
   displ. norm   :     0.1472464 α      lambda       -0.1911224E-03
   maximum displ.:     0.0594248 α      in ANC's #13, #4, #10, ...

........................................................................
.............................. CYCLE   42 ..............................
........................................................................

 iter      E             dE          RMSdq      gap      omega  full diag
   1    -42.6339060 -0.426339E+02  0.844E-02    1.31       0.0  T
   2    -42.6334109  0.495124E-03  0.128E-01    1.20       1.0  T
   3    -42.6339668 -0.555873E-03  0.472E-02    1.29       1.0  T
   4    -42.6340017 -0.349664E-04  0.174E-02    1.27       1.1  T
   5    -42.6340074 -0.566699E-05  0.480E-03    1.27       4.2  T
   6    -42.6340080 -0.590452E-06  0.162E-03    1.27      12.3  T
   7    -42.6340080 -0.226378E-07  0.815E-04    1.27      24.5  T
   8    -42.6340080 -0.832127E-08  0.314E-04    1.27      63.7  T
     SCC iter.                  ...        0 min,  0.010 sec
     gradient                   ...        0 min,  0.011 sec
 * total energy  :   -42.1081253 Eh     change       -0.1330179E-03 Eh
   gradient norm :     0.0112218 Eh/α   predicted    -0.9764268E-04 ( -26.59%)
   displ. norm   :     0.1610597 α      lambda       -0.1434234E-03
   maximum displ.:     0.0655231 α      in ANC's #4, #13, #7, ...
 * RMSD in coord.:     0.8534911 α      energy gain  -0.9169968E-01 Eh

generating ANC from model Hessian ...
Using Lindh-Hessian (1995)
 Shifting diagonal of input Hessian by    9.7224197509301301E-003
 Lowest  eigenvalues of input Hessian
    0.000000    0.000000    0.000000    0.000000    0.000000    0.000000
    0.010000    0.011098    0.011944    0.013409    0.014932    0.017239
    0.019782    0.019895    0.022375    0.028722    0.029965    0.033849
 Highest eigenvalues
    2.065384    2.163928    2.236080    2.299153    2.778363    8.536132


........................................................................
.............................. CYCLE   43 ..............................
........................................................................

 iter      E             dE          RMSdq      gap      omega  full diag
   1    -42.6334207 -0.426334E+02  0.923E-02    1.31       0.0  T
   2    -42.6329009  0.519798E-03  0.131E-01    1.20       1.0  T
   3    -42.6334699 -0.569077E-03  0.552E-02    1.30       1.0  T
   4    -42.6335214 -0.514262E-04  0.204E-02    1.28       1.0  T
   5    -42.6335303 -0.892837E-05  0.539E-03    1.28       3.7  T
   6    -42.6335310 -0.725295E-06  0.178E-03    1.28      11.3  T
   7    -42.6335310 -0.190249E-07  0.896E-04    1.28      22.3  T
   8    -42.6335310 -0.112533E-07  0.356E-04    1.28      56.2  T
     SCC iter.                  ...        0 min,  0.010 sec
     gradient                   ...        0 min,  0.011 sec
 * total energy  :   -42.1082381 Eh     change       -0.1128299E-03 Eh
   gradient norm :     0.0091628 Eh/α   predicted     0.0000000E+00 (-100.00%)
   displ. norm   :     0.0809235 α      lambda       -0.1867104E-03
   maximum displ.:     0.0311355 α      in ANC's #6, #12, #4, ...

........................................................................
.............................. CYCLE   44 ..............................
........................................................................

 iter      E             dE          RMSdq      gap      omega  full diag
   1    -42.6347139 -0.426347E+02  0.490E-02    1.28       0.0  T
   2    -42.6347082  0.570496E-05  0.337E-02    1.27       1.0  T
   3    -42.6346360  0.721871E-04  0.476E-02    1.30       1.0  T
   4    -42.6347136 -0.776029E-04  0.934E-03    1.27       2.1  T
   5    -42.6347167 -0.310862E-05  0.195E-03    1.27      10.2  T
   6    -42.6347167 -0.577568E-07  0.946E-04    1.27      21.1  T
   7    -42.6347168 -0.966878E-08  0.443E-04    1.27      45.1  T
     SCC iter.                  ...        0 min,  0.009 sec
     gradient                   ...        0 min,  0.011 sec
 * total energy  :   -42.1083728 Eh     change       -0.1346436E-03 Eh
   gradient norm :     0.0059915 Eh/α   predicted    -0.9397112E-04 ( -30.21%)
   displ. norm   :     0.2711302 α      lambda       -0.4402226E-03
   maximum displ.:     0.1164394 α      in ANC's #4, #10, #3, ...

........................................................................
.............................. CYCLE   45 ..............................
........................................................................

 iter      E             dE          RMSdq      gap      omega  full diag
   1    -42.6365669 -0.426366E+02  0.134E-01    1.29       0.0  T
   2    -42.6363754  0.191570E-03  0.116E-01    1.22       1.0  T
   3    -42.6362339  0.141453E-03  0.109E-01    1.33       1.0  T
   4    -42.6366108 -0.376865E-03  0.124E-02    1.26       1.6  T
   5    -42.6366139 -0.315900E-05  0.479E-03    1.26       4.2  T
   6    -42.6366140 -0.106591E-06  0.237E-03    1.26       8.4  T
   7    -42.6366141 -0.989653E-07  0.110E-03    1.26      18.1  T
   8    -42.6366142 -0.218010E-07  0.528E-04    1.26      37.9  T
   9    -42.6366142 -0.744478E-09  0.268E-04    1.26      74.6  T
     SCC iter.                  ...        0 min,  0.011 sec
     gradient                   ...        0 min,  0.011 sec
 * total energy  :   -42.1086064 Eh     change       -0.2336313E-03 Eh
   gradient norm :     0.0199294 Eh/α   predicted    -0.2363135E-03 (   1.15%)
   displ. norm   :     0.2830971 α      lambda       -0.4125331E-03
   maximum displ.:     0.1308555 α      in ANC's #4, #3, #10, ...

........................................................................
.............................. CYCLE   46 ..............................
........................................................................

 iter      E             dE          RMSdq      gap      omega  full diag
   1    -42.6349612 -0.426350E+02  0.140E-01    1.27       0.0  T
   2    -42.6349467  0.144798E-04  0.860E-02    1.24       1.0  T
   3    -42.6342859  0.660789E-03  0.133E-01    1.34       1.0  T
   4    -42.6349773 -0.691375E-03  0.122E-02    1.26       1.6  T
   5    -42.6349796 -0.228522E-05  0.576E-03    1.26       3.5  T
   6    -42.6349798 -0.279423E-06  0.308E-03    1.26       6.5  T
   7    -42.6349800 -0.181913E-06  0.107E-03    1.26      18.7  T
   8    -42.6349800 -0.118397E-07  0.642E-04    1.26      31.1  T
   9    -42.6349800 -0.339269E-08  0.266E-04    1.26      75.0  T
     SCC iter.                  ...        0 min,  0.011 sec
     gradient                   ...        0 min,  0.011 sec
 * total energy  :   -42.1088815 Eh     change       -0.2750621E-03 Eh
   gradient norm :     0.0135373 Eh/α   predicted    -0.2228012E-03 ( -19.00%)
   displ. norm   :     0.2809612 α      lambda       -0.5450720E-03
   maximum displ.:     0.1236479 α      in ANC's #4, #5, #3, ...

........................................................................
.............................. CYCLE   47 ..............................
........................................................................

 iter      E             dE          RMSdq      gap      omega  full diag
   1    -42.6332974 -0.426333E+02  0.129E-01    1.26       0.0  T
   2    -42.6333040 -0.655265E-05  0.744E-02    1.26       1.0  T
   3    -42.6332361  0.679214E-04  0.453E-02    1.23       1.0  T
   4    -42.6332967 -0.606643E-04  0.180E-02    1.26       1.1  T
   5    -42.6333077 -0.109157E-04  0.507E-03    1.25       3.9  T
   6    -42.6333079 -0.288961E-06  0.238E-03    1.25       8.4  T
   7    -42.6333081 -0.108711E-06  0.853E-04    1.25      23.4  T
   8    -42.6333081 -0.516358E-08  0.542E-04    1.25      36.9  T
     SCC iter.                  ...        0 min,  0.010 sec
     gradient                   ...        0 min,  0.011 sec
 * total energy  :   -42.1093151 Eh     change       -0.4335833E-03 Eh
   gradient norm :     0.0203586 Eh/α   predicted    -0.2940529E-03 ( -32.18%)
   displ. norm   :     0.3715404 α      lambda       -0.1117781E-02
   maximum displ.:     0.1553968 α      in ANC's #5, #2, #1, ...

........................................................................
.............................. CYCLE   48 ..............................
........................................................................

 iter      E             dE          RMSdq      gap      omega  full diag
   1    -42.6347525 -0.426348E+02  0.159E-01    1.25       0.0  T
   2    -42.6347508  0.165012E-05  0.100E-01    1.27       1.0  T
   3    -42.6340670  0.683817E-03  0.131E-01    1.17       1.0  T
   4    -42.6347507 -0.683637E-03  0.350E-02    1.26       1.0  T
   5    -42.6347833 -0.326778E-04  0.769E-03    1.25       2.6  T
   6    -42.6347842 -0.870799E-06  0.368E-03    1.25       5.4  T
   7    -42.6347844 -0.140855E-06  0.166E-03    1.25      12.1  T
   8    -42.6347844 -0.537119E-07  0.687E-04    1.25      29.1  T
   9    -42.6347844 -0.347784E-08  0.333E-04    1.25      60.1  T
     SCC iter.                  ...        0 min,  0.011 sec
     gradient                   ...        0 min,  0.011 sec
 * total energy  :   -42.1100005 Eh     change       -0.6853967E-03 Eh
   gradient norm :     0.0250570 Eh/α   predicted    -0.6360701E-03 (  -7.20%)
   displ. norm   :     0.6030661 α      lambda       -0.1077596E-02
   maximum displ.:     0.2423674 α      in ANC's #4, #10, #3, ...

........................................................................
.............................. CYCLE   49 ..............................
........................................................................

 iter      E             dE          RMSdq      gap      omega  full diag
   1    -42.6249269 -0.426249E+02  0.317E-01    1.34       0.0  T
   2    -42.6225554  0.237158E-02  0.331E-01    1.09       1.0  T
   3    -42.6243473 -0.179197E-02  0.225E-01    1.37       1.0  T
   4    -42.6255059 -0.115856E-02  0.702E-02    1.25       1.0  T
   5    -42.6256152 -0.109246E-03  0.208E-02    1.25       1.0  T
   6    -42.6256249 -0.979263E-05  0.821E-03    1.25       2.4  T
   7    -42.6256253 -0.340366E-06  0.448E-03    1.25       4.5  T
   8    -42.6256257 -0.412108E-06  0.169E-03    1.25      11.8  T
   9    -42.6256257 -0.300782E-07  0.818E-04    1.25      24.4  T
  10    -42.6256257 -0.459170E-08  0.312E-04    1.25      64.2  T
     SCC iter.                  ...        0 min,  0.012 sec
     gradient                   ...        0 min,  0.011 sec
 * total energy  :   -42.1097735 Eh     change        0.2269625E-03 Eh
   gradient norm :     0.0441321 Eh/α   predicted    -0.7347635E-03 (-423.74%)
   displ. norm   :     0.1847102 α      lambda       -0.2210482E-02
   maximum displ.:     0.0896413 α      in ANC's #10, #4, #3, ...

........................................................................
.............................. CYCLE   50 ..............................
........................................................................

 iter      E             dE          RMSdq      gap      omega  full diag
   1    -42.6376324 -0.426376E+02  0.138E-01    1.22       0.0  T
   2    -42.6375001  0.132300E-03  0.123E-01    1.30       1.0  T
   3    -42.6375515 -0.514024E-04  0.996E-02    1.20       1.0  T
   4    -42.6377690 -0.217510E-03  0.565E-02    1.27       1.0  T
   5    -42.6378346 -0.655777E-04  0.148E-02    1.25       1.4  T
   6    -42.6378400 -0.538340E-05  0.485E-03    1.25       4.1  T
   7    -42.6378401 -0.164449E-06  0.276E-03    1.25       7.3  T
[...]
O           -3.32778698203951       -0.87487780130807       -0.21105413690175
N           -1.11162664784206       -1.78205780164388       -0.05708440928031
C           -1.20369548378296       -3.25539838276700       -0.10585646239017
H            2.70503285122259        1.84170693675909        0.82994500353338
H            3.82377997024936        0.94079069132362       -0.22029680846749
H            2.46282299752988        1.86208165362858       -0.92152361364285
H            3.37274269892039       -1.48077504552205        0.30145496252054
H           -0.98490398628283        3.86147049342510        0.64927710515430
H           -2.09100567484162        3.22150022970369       -0.57693573106656
H           -2.47524546970912        3.02605263023635        1.15476580053714
H           -0.87168484354247       -3.68598598381844        0.83949531486687
H           -0.61244669193245       -3.63757360063519       -0.93847571865208
H           -2.24315301004839       -3.53556424676842       -0.26379245074897
H            1.31783052864167       -2.97394352451114        0.32186946313432

 Bond Distances (Angstroems)
 ---------------------------
C1-N2=1.4374         C1-H15=1.0913        C1-H16=1.0869        C1-H17=1.0923        N2-C1=1.4374         N2-C3=1.3267         
N2-C6=1.3720         C3-N2=1.3267         C3-N4=1.3436         C3-H18=1.0717        N4-C3=1.3436         N4-C5=1.3742         
N4-H25=1.0092        C5-N4=1.3742         C5-C6=1.3790         C5-N13=1.4000        C6-N2=1.3720         C6-C5=1.3790         
C6-C7=1.5234         C7-C6=1.5234         C7-O8=1.2318         C7-N9=1.3055         O8-C7=1.2318         N9-C7=1.3055         
N9-C10=1.4208        C10-N9=1.4208        C10-H19=1.1037       C10-H20=1.0960       C10-H21=1.0899       C11-O12=1.1630       
C11-N13=1.2874       O12-C11=1.1630       N13-C5=1.4000        N13-C11=1.2874       N13-C14=1.4770       C14-N13=1.4770       
C14-H22=1.0906       C14-H23=1.0904       C14-H24=1.0881       H15-C1=1.0913        H16-C1=1.0869        H17-C1=1.0923        
H18-C3=1.0717        H19-C10=1.1037       H20-C10=1.0960       H21-C10=1.0899       H22-C14=1.0906       H23-C14=1.0904       
H24-C14=1.0881       H25-N4=1.0092        
 C  H  Rav=1.0901 sigma=0.0076  Rmin=1.0717  Rmax=1.1037    10
 C  C  Rav=1.4512 sigma=0.0722  Rmin=1.3790  Rmax=1.5234     2
 N  H  Rav=1.0092 sigma=0.0000  Rmin=1.0092  Rmax=1.0092     1
 N  C  Rav=1.3745 sigma=0.0573  Rmin=1.2874  Rmax=1.4770    10
 O  C  Rav=1.1974 sigma=0.0344  Rmin=1.1630  Rmax=1.2318     2

 selected bond angles (degree)
 --------------------
H15-C1-N2=110.12               H16-C1-N2=109.82               H16-C1-H15=109.55              H17-C1-N2=109.02               
H17-C1-H15=108.15              H17-C1-H16=110.15              C3-N2-C1=125.95                C6-N2-C1=124.65                
C6-N2-C3=109.40                N4-C3-N2=108.81                H18-C3-N2=125.92               H18-C3-N4=125.28               
C5-N4-C3=108.25                H25-N4-C3=124.89               H25-N4-C5=126.87               C6-C5-N4=107.18                
N13-C5-N4=121.16               N13-C5-C6=131.62               C5-C6-N2=106.35                C7-C6-N2=118.87                
C7-C6-C5=134.51                O8-C7-C6=116.28                N9-C7-C6=113.99                N9-C7-O8=129.65                
C10-N9-C7=121.33               H19-C10-N9=112.45              H20-C10-N9=111.30              H20-C10-H19=107.25             
H21-C10-N9=107.70              H21-C10-H19=108.64             H21-C10-H20=109.45             

 selected dihedral angles (degree)
 ---------------------------------
C3-N2-C1-H15=253.08           C3-N2-C1-H16= 13.80           C3-N2-C1-H17=134.58           C6-N2-C1-H15= 73.17           
C6-N2-C1-H16=193.90           C6-N2-C1-H17=314.67           N4-C3-N2-C1=180.65            N4-C3-N2-C6=  0.57            
H18-C3-N2-C1=  0.39           H18-C3-N2-C6=180.31           C5-N4-C3-N2=359.97            C5-N4-C3-H18=180.23           
H25-N4-C3-N2=179.76           H25-N4-C3-H18=  0.00          C6-C5-N4-C3=359.49            C6-C5-N4-H25=179.70           
N13-C5-N4-C3=177.56           N13-C5-N4-H25=357.77          C5-C6-N2-C1=179.05            C5-C6-N2-C3=359.13            
C7-C6-N2-C1=  4.15            C7-C6-N2-C3=184.23            N2-C6-C5-N4=  0.83            N2-C6-C5-N13=183.05           
C7-C6-C5-N4=174.57            C7-C6-C5-N13=356.78           O8-C7-C6-N2= 52.19            O8-C7-C6-C5=239.06            
N9-C7-C6-N2=235.02            N9-C7-C6-C5= 61.89            C10-N9-C7-C6=173.08           C10-N9-C7-O8=356.38           
H19-C10-N9-C7=292.35          H20-C10-N9-C7= 52.72          H21-C10-N9-C7=172.70          
           -------------------------------------------------
          |                Final Singlepoint                |
           -------------------------------------------------

          ...................................................
          :                      SETUP                      :
          :.................................................:
          :  # basis functions                  67          :
          :  # atomic orbitals                  67          :
          :  # shells                           39          :
          :  # electrons                        74          :
          :  max. iterations                   250          :
          :  Hamiltonian                  GFN2-xTB          :
          :  restarted?                      false          :
          :  GBSA solvation                  false          :
          :  PC potential                    false          :
          :  electronic temp.         5000.0000000     K    :
          :  accuracy                    1.0000000          :
          :  -> integral cutoff          0.2500000E+02      :
          :  -> integral neglect         0.1000000E-07      :
          :  -> SCF convergence          0.1000000E-05 Eh   :
          :  -> wf. convergence          0.1000000E-03 e    :
          :  Broyden damping             0.4000000          :
          ...................................................

 iter      E             dE          RMSdq      gap      omega  full diag
   1    -42.6512832 -0.426513E+02  0.811E-05    1.23       0.0  T
   2    -42.6512832 -0.920153E-11  0.639E-05    1.23     312.9  T
   3    -42.6512832 -0.826077E-10  0.306E-05    1.23     653.4  T

   *** convergence criteria satisfied after 3 iterations ***

         #    Occupation            Energy/Eh            Energy/eV
      -------------------------------------------------------------
         1        2.0000           -0.9208233             -25.0569
       ...           ...                  ...                  ...
        31        1.9996           -0.6074784             -16.5303
        32        1.9990           -0.5912709             -16.0893
        33        1.9987           -0.5865512             -15.9609
        34        1.9967           -0.5721219             -15.5682
        35        1.9522           -0.5296263             -14.4119
        36        1.7446           -0.5013232             -13.6417
        37        1.6958           -0.4981044             -13.5541 (HOMO)
        38        0.4869           -0.4529452             -12.3253 (LUMO)
        39        0.0917           -0.4228390             -11.5060
        40        0.0339           -0.4066242             -11.0648
        41        0.0011           -0.3524051              -9.5894
        42        0.0001           -0.3108699              -8.4592
       ...           ...                  ...                  ...
        67                          0.8054613              21.9177
      -------------------------------------------------------------
                  HL-Gap            0.0451592 Eh            1.2288 eV
             Fermi-level           -0.4708984 Eh          -12.8138 eV

 SCC (total)                   0 d,  0 h,  0 min,  0.020 sec
 SCC setup                      ...        0 min,  0.000 sec (  0.914%)
 Dispersion                     ...        0 min,  0.000 sec (  0.814%)
 classical contributions        ...        0 min,  0.000 sec (  0.318%)
 integral evaluation            ...        0 min,  0.004 sec ( 20.245%)
 iterations                     ...        0 min,  0.004 sec ( 21.627%)
 molecular gradient             ...        0 min,  0.011 sec ( 55.447%)
 printout                       ...        0 min,  0.000 sec (  0.596%)

         :::::::::::::::::::::::::::::::::::::::::::::::::::::
         ::                     SUMMARY                     ::
         :::::::::::::::::::::::::::::::::::::::::::::::::::::
         :: total energy             -42.114185590146 Eh    ::
         :: gradient norm              0.001131716991 Eh/a0 ::
         :: HOMO-LUMO gap              1.228845244501 eV    ::
         ::.................................................::
         :: SCC energy               -42.651283173700 Eh    ::
         :: -> isotropic ES            0.142740415373 Eh    ::
         :: -> anisotropic ES         -0.006304059052 Eh    ::
         :: -> anisotropic XC          0.017380769453 Eh    ::
         :: -> dispersion             -0.021559370580 Eh    ::
         :: repulsion energy           0.536955012205 Eh    ::
         :: add. restraining           0.000003554416 Eh    ::
         :: total charge               1.000000000000 e     ::
         :::::::::::::::::::::::::::::::::::::::::::::::::::::

           -------------------------------------------------
          |                Property Printout                |
           -------------------------------------------------

    * Orbital Energies and Occupations

         #    Occupation            Energy/Eh            Energy/eV
      -------------------------------------------------------------
         1        2.0000           -0.9208233             -25.0569
       ...           ...                  ...                  ...
        25        2.0000           -0.6604742             -17.9724
        26        2.0000           -0.6548078             -17.8182
        27        2.0000           -0.6466068             -17.5951
        28        2.0000           -0.6392042             -17.3936
        29        1.9999           -0.6310987             -17.1731
        30        1.9999           -0.6287575             -17.1094
        31        1.9996           -0.6074784             -16.5303
        32        1.9990           -0.5912709             -16.0893
        33        1.9987           -0.5865512             -15.9609
        34        1.9967           -0.5721219             -15.5682
        35        1.9522           -0.5296263             -14.4119
        36        1.7446           -0.5013232             -13.6417
        37        1.6958           -0.4981044             -13.5541 (HOMO)
        38        0.4869           -0.4529452             -12.3253 (LUMO)
        39        0.0917           -0.4228390             -11.5060
        40        0.0339           -0.4066242             -11.0648
        41        0.0011           -0.3524051              -9.5894
        42        0.0001           -0.3108699              -8.4592
        43        0.0000           -0.2214791              -6.0268
        44                         -0.1928482              -5.2477
        45                         -0.1355829              -3.6894
        46                         -0.0890246              -2.4225
        47                         -0.0603165              -1.6413
        48                         -0.0402200              -1.0944
       ...                                ...                  ...
        67                          0.8054613              21.9177
      -------------------------------------------------------------
                  HL-Gap            0.0451592 Eh            1.2288 eV
             Fermi-level           -0.4708984 Eh          -12.8138 eV

     #   Z          covCN         q      C6AA      α(0)
     1   6 C        3.693    -0.090    22.400     6.772
     2   7 N        2.862     0.087    19.740     6.599
     3   6 C        3.031     0.048    26.899     8.507
     4   7 N        2.805    -0.058    22.354     7.022
     5   6 C        3.049     0.091    25.924     8.351
     6   6 C        3.084     0.003    27.862     8.653
     7   6 C        2.765     0.276    22.330     7.739
     8   8 O        0.858    -0.420    22.082     6.300
     9   7 N        1.829    -0.262    27.649     7.792
    10   6 C        3.702    -0.021    21.104     6.569
    11   6 C        1.815     0.272    24.945     8.070
    12   8 O        0.856    -0.124    16.879     5.508
    13   7 N        2.728     0.020    20.906     6.791
    14   6 C        3.704    -0.082    22.216     6.739
    15   1 H        0.924     0.109     1.709     2.045
    16   1 H        0.925     0.099     1.798     2.097
    17   1 H        0.924     0.140     1.460     1.890
    18   1 H        0.926     0.123     1.588     1.970
    19   1 H        0.923     0.081     1.967     2.193
    20   1 H        0.924     0.085     1.930     2.173
    21   1 H        0.925     0.082     1.962     2.190
    22   1 H        0.924     0.099     1.790     2.092
    23   1 H        0.924     0.101     1.779     2.086
    24   1 H        0.925     0.114     1.663     2.017
    25   1 H        0.860     0.227     0.980     1.550

 Mol. C6AA /au·bohr⁶  :       6594.868770
 Mol. C8AA /au·bohr⁸  :     151343.454465
 Mol. α(0) /au        :        123.713712


Wiberg/Mayer (AO) data.
largest (>0.10) Wiberg bond orders for each atom

 ---------------------------------------------------------------------------
     #   Z sym  total        # sym  WBO       # sym  WBO       # sym  WBO
 ---------------------------------------------------------------------------
     1   6 C    3.916 --     2 N    0.987    16 H    0.974    15 H    0.956
                            17 H    0.947
     2   7 N    3.701 --     3 C    1.374     6 C    1.198     1 C    0.987
     3   6 C    3.859 --     2 N    1.374     4 N    1.295    18 H    0.952
     4   7 N    3.575 --     3 C    1.295     5 C    1.176    25 H    0.916
     5   6 C    3.885 --     6 C    1.464     4 N    1.176    13 N    1.043
     6   6 C    3.892 --     5 C    1.464     2 N    1.198     7 C    0.915
     7   6 C    3.929 --     8 O    1.537     9 N    1.415     6 C    0.915
     8   8 O    1.818 --     7 C    1.537     9 N    0.165
     9   7 N    2.706 --     7 C    1.415    10 C    1.060     8 O    0.165
    10   6 C    3.904 --     9 N    1.060    21 H    0.955    19 H    0.930
                            20 H    0.928
    11   6 C    3.477 --    12 O    2.013    13 N    1.377
    12   8 O    2.241 --    11 C    2.013    13 N    0.164
    13   7 N    3.579 --    11 C    1.377     5 C    1.043    14 C    0.916
                            12 O    0.164
    14   6 C    3.871 --    24 H    0.973    23 H    0.969    22 H    0.969
                            13 N    0.916
    15   1 H    0.986 --     1 C    0.956
    16   1 H    0.989 --     1 C    0.974
    17   1 H    0.979 --     1 C    0.947
    18   1 H    0.984 --     3 C    0.952
    19   1 H    0.949 --    10 C    0.930
    20   1 H    0.941 --    10 C    0.928
    21   1 H    0.965 --    10 C    0.955
    22   1 H    0.988 --    14 C    0.969
    23   1 H    0.987 --    14 C    0.969
    24   1 H    0.986 --    14 C    0.973
    25   1 H    0.948 --     4 N    0.916
 ---------------------------------------------------------------------------

Topologies differ in total number of bonds
Writing topology from bond orders to xtbtopo.mol

molecular dipole:
                 x           y           z       tot (Debye)
 q only:        1.670      -3.215       0.854
   full:        1.857      -3.482       0.850      10.260
molecular quadrupole (traceless):
                xx          xy          yy          xz          yz          zz
 q only:        8.203      -0.152      15.925       1.418       4.819     -24.129
  q+dip:        6.875      -2.535      17.627       2.587       4.962     -24.502
   full:        5.840      -1.694      17.793       2.797       5.424     -23.633

           -------------------------------------------------
          |                Geometry Summary                 |
           -------------------------------------------------

      molecular mass/u    :      195.1988581
   center of mass at/Å    :       -0.1046734      -0.0983065      -0.0905925
  moments of inertia/u·Å² :        0.6282046E+03   0.7171318E+03   0.1259007E+04
rotational constants/cm⁻¹ :        0.2683462E-01   0.2350702E-01   0.1338962E-01

 * 24 selected distances

     #   Z          #   Z                                           value/Å
     1   6 C        2   7 N                                       1.4374388
     2   7 N        3   6 C                                       1.3266736
     3   6 C        4   7 N                                       1.3436053
     4   7 N        5   6 C                                       1.3742460
     2   7 N        6   6 C                                       1.3720264
     5   6 C        6   6 C                                       1.3790128
     7   6 C        8   8 O                                       1.2317596
     7   6 C        9   7 N                                       1.3055454
     9   7 N       10   6 C                                       1.4208100
    11   6 C       12   8 O                                       1.1630283
     5   6 C       13   7 N                                       1.3999711
    11   6 C       13   7 N                                       1.2873812
    13   7 N       14   6 C                                       1.4770201 (max)
     1   6 C       15   1 H                                       1.0913027
     1   6 C       16   1 H                                       1.0869426
     1   6 C       17   1 H                                       1.0922927
     3   6 C       18   1 H                                       1.0717406
    10   6 C       19   1 H                                       1.1036628
    10   6 C       20   1 H                                       1.0960150
    10   6 C       21   1 H                                       1.0898547
    14   6 C       22   1 H                                       1.0905627
    14   6 C       23   1 H                                       1.0903614
    14   6 C       24   1 H                                       1.0880758
     4   7 N       25   1 H                                       1.0092438 (min)

 * 5 distinct bonds (by element types)

   Z      Z             #   av. dist./Å        max./Å        min./Å
   1 H    6 C          10     1.0900811     1.1036628     1.0717406
   6 C    6 C           1     1.3790128     1.3790128     1.3790128
   1 H    7 N           1     1.0092438     1.0092438     1.0092438
   6 C    7 N          10     1.3744718     1.4770201     1.2873812
   6 C    8 O           2     1.1973939     1.2317596     1.1630283


optimized geometry written to: xtbopt.xyz


           -------------------------------------------------
          | TOTAL ENERGY              -42.114185590146 Eh   |
          | GRADIENT NORM               0.001131716991 Eh/α |
          | HOMO-LUMO GAP               1.228845244501 eV   |
           -------------------------------------------------

------------------------------------------------------------------------
 * finished run on 2024/06/05 at 20:00:18.548     
------------------------------------------------------------------------
 total:
 * wall-time:     0 d,  0 h,  0 min,  2.170 sec
 *  cpu-time:     0 d,  0 h,  0 min,  2.151 sec
 * ratio c/w:     0.991 speedup
 SCF:
 * wall-time:     0 d,  0 h,  0 min,  0.033 sec
 *  cpu-time:     0 d,  0 h,  0 min,  0.033 sec
 * ratio c/w:     0.998 speedup
 ANC optimizer:
 * wall-time:     0 d,  0 h,  0 min,  2.110 sec
 *  cpu-time:     0 d,  0 h,  0 min,  2.106 sec
 * ratio c/w:     0.998 speedup

