      -----------------------------------------------------------      
     |                   =====================                   |     
     |                           x T B                           |     
     |                   =====================                   |     
     |                         S. Grimme                         |     
     |          Mulliken Center for Theoretical Chemistry        |     
     |                    University of Bonn                     |     
      -----------------------------------------------------------      

   * xtb version 6.6.1 (8d0f1dd) compiled by 'conda@1efc2f54142f' on 2023-08-01

   xtb is free software: you can redistribute it and/or modify it under
   the terms of the GNU Lesser General Public License as published by
   the Free Software Foundation, either version 3 of the License, or
   (at your option) any later version.
   
   xtb is distributed in the hope that it will be useful,
   but WITHOUT ANY WARRANTY; without even the implied warranty of
   MERCHANTABILITY or FITNESS FOR A PARTICULAR PURPOSE.  See the
   GNU Lesser General Public License for more details.
   
   Cite this work as:
   * C. Bannwarth, E. Caldeweyher, S. Ehlert, A. Hansen, P. Pracht,
     J. Seibert, S. Spicher, S. Grimme, WIREs Comput. Mol. Sci., 2020, 11,
     e01493. DOI: 10.1002/wcms.1493
   
   for GFN2-xTB:
   * C. Bannwarth, S. Ehlert and S. Grimme., J. Chem. Theory Comput., 2019,
     15, 1652-1671. DOI: 10.1021/acs.jctc.8b01176
   for GFN1-xTB:
   * S. Grimme, C. Bannwarth, P. Shushkov, J. Chem. Theory Comput., 2017,
     13, 1989-2009. DOI: 10.1021/acs.jctc.7b00118
   for GFN0-xTB:
   * P. Pracht, E. Caldeweyher, S. Ehlert, S. Grimme, ChemRxiv, 2019, preprint.
     DOI: 10.26434/chemrxiv.8326202.v1
   for GFN-FF:
   * S. Spicher and S. Grimme, Angew. Chem. Int. Ed., 2020, 59, 15665-15673.
     DOI: 10.1002/anie.202004239
   
   for ALPB and GBSA implicit solvation:
   * S. Ehlert, M. Stahn, S. Spicher, S. Grimme, J. Chem. Theory Comput.,
     2021, 17, 4250-4261. DOI: 10.1021/acs.jctc.1c00471
   
   for DFT-D4:
   * E. Caldeweyher, C. Bannwarth and S. Grimme, J. Chem. Phys., 2017,
     147, 034112. DOI: 10.1063/1.4993215
   * E. Caldeweyher, S. Ehlert, A. Hansen, H. Neugebauer, S. Spicher,
     C. Bannwarth and S. Grimme, J. Chem. Phys., 2019, 150, 154122.
     DOI: 10.1063/1.5090222
   * E. Caldeweyher, J.-M. Mewes, S. Ehlert and S. Grimme, Phys. Chem. Chem. Phys.
     2020, 22, 8499-8512. DOI: 10.1039/D0CP00502A
   
   for sTDA-xTB:
   * S. Grimme and C. Bannwarth, J. Chem. Phys., 2016, 145, 054103.
     DOI: 10.1063/1.4959605
   
   in the mass-spec context:
   * V. Asgeirsson, C. Bauer and S. Grimme, Chem. Sci., 2017, 8, 4879.
     DOI: 10.1039/c7sc00601b
   * J. Koopman and S. Grimme, ACS Omega 2019, 4, 12, 15120-15133.
     DOI: 10.1021/acsomega.9b02011
   
   for metadynamics refer to:
   * S. Grimme, J. Chem. Theory Comput., 2019, 155, 2847-2862
     DOI: 10.1021/acs.jctc.9b00143
   
   for SPH calculations refer to:
   * S. Spicher and S. Grimme, J. Chem. Theory Comput., 2021, 17, 1701-1714
     DOI: 10.1021/acs.jctc.0c01306
   
   with help from (in alphabetical order)
   P. Atkinson, C. Bannwarth, F. Bohle, G. Brandenburg, E. Caldeweyher
   M. Checinski, S. Dohm, S. Ehlert, S. Ehrlich, I. Gerasimov, C. Hölzer
   A. Katbashev, J. Koopman, C. Lavigne, S. Lehtola, F. März, M. Müller,
   F. Musil, H. Neugebauer, J. Pisarek, C. Plett, P. Pracht, F. Pultar,
   J. Seibert, P. Shushkov, S. Spicher, M. Stahn, M. Steiner, T. Strunk,
   J. Stückrath, T. Rose, and J. Unsleber
   
 * started run on 2024/06/05 at 19:58:06.858     

           -------------------------------------------------
          |                Calculation Setup                |
           -------------------------------------------------

          program call               : xtb struc.xyz --opt loose --input .xc1 --gfn2
          hostname                   : n-62-21-69
          coordinate file            : struc.xyz
          omp threads                :                     1

   ID    Z sym.   atoms
    1    6 C      1, 3, 5-7, 10, 11, 14
    2    7 N      2, 4, 9, 13
    3    8 O      8, 12
    4    1 H      15-25
constraining bond 8 20 to    4.6333300 Å, actual value:    3.4833385 Å

           -------------------------------------------------
          |                 G F N 2 - x T B                 |
           -------------------------------------------------

        Reference                      10.1021/acs.jctc.8b01176
      * Hamiltonian:
        H0-scaling (s, p, d)           1.850000    2.230000    2.230000
        zeta-weighting                 0.500000
      * Dispersion:
        s8                             2.700000
        a1                             0.520000
        a2                             5.000000
        s9                             5.000000
      * Repulsion:
        kExp                           1.500000    1.000000
        rExp                           1.000000
      * Coulomb:
        alpha                          2.000000
        third order                    shell-resolved
        anisotropic                    true
        a3                             3.000000
        a5                             4.000000
        cn-shift                       1.200000
        cn-exp                         4.000000
        max-rad                        5.000000


          ...................................................
          :                      SETUP                      :
          :.................................................:
          :  # basis functions                  67          :
          :  # atomic orbitals                  67          :
          :  # shells                           39          :
          :  # electrons                        74          :
          :  max. iterations                   250          :
          :  Hamiltonian                  GFN2-xTB          :
          :  restarted?                      false          :
          :  GBSA solvation                  false          :
          :  PC potential                    false          :
          :  electronic temp.         5000.0000000     K    :
          :  accuracy                    1.0000000          :
          :  -> integral cutoff          0.2500000E+02      :
          :  -> integral neglect         0.1000000E-07      :
          :  -> SCF convergence          0.1000000E-05 Eh   :
          :  -> wf. convergence          0.1000000E-03 e    :
          :  Broyden damping             0.4000000          :
          ...................................................

 iter      E             dE          RMSdq      gap      omega  full diag
   1    -42.5894031 -0.425894E+02  0.445E+00    3.52       0.0  T
   2    -42.7683054 -0.178902E+00  0.251E+00    3.36       1.0  T
   3    -42.7759211 -0.761567E-02  0.147E+00    3.35       1.0  T
   4    -42.7728404  0.308066E-02  0.553E-01    3.33       1.0  T
   5    -42.7789548 -0.611444E-02  0.112E-01    3.35       1.0  T
   6    -42.7790473 -0.924914E-04  0.614E-02    3.33       1.0  T
   7    -42.7790721 -0.247928E-04  0.258E-02    3.34       1.0  T
   8    -42.7790772 -0.508996E-05  0.938E-03    3.34       2.1  T
   9    -42.7790779 -0.669422E-06  0.448E-03    3.34       4.5  T
  10    -42.7790780 -0.821511E-07  0.115E-03    3.34      17.4  T
  11    -42.7790780 -0.322662E-08  0.553E-04    3.34      36.2  T
  12    -42.7790780 -0.287052E-08  0.180E-04    3.34     111.1  T

   *** convergence criteria satisfied after 12 iterations ***

         #    Occupation            Energy/Eh            Energy/eV
      -------------------------------------------------------------
         1        2.0000           -0.9185990             -24.9964
       ...           ...                  ...                  ...
        31        1.9996           -0.6230278             -16.9534
        32        1.9995           -0.6194601             -16.8564
        33        1.9979           -0.5974976             -16.2587
        34        1.9932           -0.5789629             -15.7544
        35        1.9817           -0.5631863             -15.3251
        36        1.9779           -0.5602245             -15.2445
        37        1.9748           -0.5581234             -15.1873 (HOMO)
        38        0.0652           -0.4353579             -11.8467 (LUMO)
        39        0.0099           -0.4050467             -11.0219
        40        0.0013           -0.3732218             -10.1559
        41        0.0000           -0.2886859              -7.8555
        42                         -0.2065804              -5.6213
       ...                                ...                  ...
        67                          0.5625656              15.3082
      -------------------------------------------------------------
                  HL-Gap            0.1227656 Eh            3.3406 eV
             Fermi-level           -0.4890455 Eh          -13.3076 eV

 SCC (total)                   0 d,  0 h,  0 min,  0.039 sec
 SCC setup                      ...        0 min,  0.000 sec (  0.884%)
 Dispersion                     ...        0 min,  0.000 sec (  1.077%)
 classical contributions        ...        0 min,  0.000 sec (  0.294%)
 integral evaluation            ...        0 min,  0.007 sec ( 17.620%)
 iterations                     ...        0 min,  0.018 sec ( 46.111%)
 molecular gradient             ...        0 min,  0.013 sec ( 33.573%)
 printout                       ...        0 min,  0.000 sec (  0.401%)

         :::::::::::::::::::::::::::::::::::::::::::::::::::::
         ::                     SUMMARY                     ::
         :::::::::::::::::::::::::::::::::::::::::::::::::::::
         :: total energy             -51.693183639607 Eh    ::
         :: gradient norm             12.292776356431 Eh/a0 ::
         :: HOMO-LUMO gap              3.340621582928 eV    ::
         ::.................................................::
         :: SCC energy               -42.779077977399 Eh    ::
         :: -> isotropic ES            0.141123876439 Eh    ::
         :: -> anisotropic ES         -0.005230418907 Eh    ::
         :: -> anisotropic XC          0.011966818540 Eh    ::
         :: -> dispersion             -0.022657731803 Eh    ::
         :: repulsion energy           0.531105277918 Eh    ::
         :: add. restraining          -9.445325099135 Eh    ::
         :: total charge               1.000000000002 e     ::
         :::::::::::::::::::::::::::::::::::::::::::::::::::::

      ----------------------------------------------------------- 
     |                   =====================                   |
     |                        A N C O P T                        |
     |                   =====================                   |
     |               Approximate Normal Coordinate               |
     |                Rational Function Optimizer                |
      ----------------------------------------------------------- 

          ...................................................
          :                      SETUP                      :
          :.................................................:
          :   optimization level             loose          :
          :   max. optcycles                   200          :
          :   ANC micro-cycles                  20          :
          :   degrees of freedom                69          :
          :.................................................:
          :   RF solver                   davidson          :
          :   write xtbopt.log                true          :
          :   linear?                        false          :
          :   energy convergence         0.5000000E-04 Eh   :
          :   grad. convergence          0.4000000E-02 Eh/α :
          :   maxmium RF displ.          1.0000000          :
          :   Hlow (freq-cutoff)         0.1000000E-01      :
          :   Hmax (freq-cutoff)         5.0000000          :
          :   S6 in model hess.         20.0000000          :
          ...................................................

generating ANC from model Hessian ...
Using Lindh-Hessian (1995)
 Shifting diagonal of input Hessian by    7.7354978324477131     
 Lowest  eigenvalues of input Hessian
    0.010000    0.000000    0.000000    0.000000    0.000000    0.000000
    0.000000    7.738341    7.741799    7.744319    7.745276    7.747051
    7.748831    7.753992    7.754718    7.756386    7.774132    7.775205
 Highest eigenvalues
    9.926598    9.972118   10.030697   10.253087   10.429391   11.134966


........................................................................
.............................. CYCLE    1 ..............................
........................................................................

 iter      E             dE          RMSdq      gap      omega  full diag
   1    -42.7790780 -0.427791E+02  0.626E-05    3.34       0.0  T
   2    -42.7790780 -0.124203E-10  0.329E-05    3.34     607.4  T
   3    -42.7790780  0.106581E-12  0.193E-05    3.34    1034.2  T
     SCC iter.                  ...        0 min,  0.005 sec
     gradient                   ...        0 min,  0.013 sec
 * total energy  :   -51.6931836 Eh     change       -0.6650680E-10 Eh
   gradient norm :    12.2927765 Eh/α   predicted     0.0000000E+00 (-100.00%)
   displ. norm   :     0.9993297 α      lambda       -0.1228201E+02
   maximum displ.:     0.9986807 α      in ANC's #1, #2, #21, ...

........................................................................
.............................. CYCLE    2 ..............................
........................................................................

 iter      E             dE          RMSdq      gap      omega  full diag
   1    -42.7886693 -0.427887E+02  0.889E-01    2.97       0.0  T
   2    -42.7935082 -0.483890E-02  0.511E-01    3.19       1.0  T
   3    -42.7935840 -0.757832E-04  0.241E-01    3.15       1.0  T
   4    -42.7936457 -0.617608E-04  0.925E-02    3.21       1.0  T
   5    -42.7938021 -0.156375E-03  0.249E-02    3.18       1.0  T
   6    -42.7938069 -0.482166E-05  0.131E-02    3.19       1.5  T
   7    -42.7938076 -0.696594E-06  0.367E-03    3.18       5.5  T
   8    -42.7938078 -0.117656E-06  0.175E-03    3.18      11.5  T
   9    -42.7938078 -0.907421E-08  0.679E-04    3.18      29.4  T
  10    -42.7938078 -0.481510E-08  0.224E-04    3.18      89.4  T
     SCC iter.                  ...        0 min,  0.014 sec
     gradient                   ...        0 min,  0.013 sec
 * total energy  :   -67.8504649 Eh     change       -0.1615728E+02 Eh
   gradient norm :    20.0410124 Eh/α   predicted    -0.1227500E+02 ( -24.03%)
   displ. norm   :     0.9996698 α      lambda       -0.2003399E+02
   maximum displ.:     0.9993455 α      in ANC's #1, #2, #11, ...

........................................................................
.............................. CYCLE    3 ..............................
........................................................................

 iter      E             dE          RMSdq      gap      omega  full diag
   1    -42.6158912 -0.426159E+02  0.102E+00    1.49       0.0  T
   2    -42.6192090 -0.331784E-02  0.762E-01    2.34       1.0  T
   3    -42.6261410 -0.693196E-02  0.411E-01    1.82       1.0  T
   4    -42.6270424 -0.901376E-03  0.140E-01    1.96       1.0  T
   5    -42.6273189 -0.276562E-03  0.437E-02    1.96       1.0  T
   6    -42.6273304 -0.114765E-04  0.215E-02    1.96       1.0  T
   7    -42.6273331 -0.267996E-05  0.730E-03    1.96       2.7  T
   8    -42.6273338 -0.684377E-06  0.316E-03    1.96       6.3  T
   9    -42.6273338 -0.419035E-07  0.141E-03    1.96      14.2  T
  10    -42.6273338 -0.179729E-07  0.432E-04    1.96      46.3  T
  11    -42.6273338 -0.756181E-09  0.192E-04    1.96     104.0  T
     SCC iter.                  ...        0 min,  0.015 sec
     gradient                   ...        0 min,  0.013 sec
 * total energy  :   -91.8263726 Eh     change       -0.2397591E+02 Eh
   gradient norm :    27.9997448 Eh/α   predicted    -0.2002738E+02 ( -16.47%)
   displ. norm   :     0.9997104 α      lambda       -0.2799108E+02
   maximum displ.:     0.9990870 α      in ANC's #1, #2, #17, ...

........................................................................
.............................. CYCLE    4 ..............................
........................................................................

 iter      E             dE          RMSdq      gap      omega  full diag
   1    -42.1017040 -0.421017E+02  0.277E+00    0.90       0.0  T
   2    -42.0664060  0.352980E-01  0.267E+00    1.81       1.0  T
   3    -42.3074521 -0.241046E+00  0.736E-01    0.83       1.0  T
   4    -42.3050224  0.242965E-02  0.372E-01    0.76       1.0  T
   5    -42.3063966 -0.137424E-02  0.295E-01    0.84       1.0  T
   6    -42.3083473 -0.195064E-02  0.570E-02    0.81       1.0  T
   7    -42.3083906 -0.432738E-04  0.249E-02    0.81       1.0  T
   8    -42.3083991 -0.854657E-05  0.790E-03    0.81       2.5  T
   9    -42.3084001 -0.101260E-05  0.360E-03    0.81       5.5  T
  10    -42.3084002 -0.699575E-07  0.164E-03    0.81      12.2  T
  11    -42.3084002 -0.183274E-07  0.560E-04    0.81      35.7  T
  12    -42.3084002 -0.657653E-08  0.263E-04    0.81      76.1  T
     SCC iter.                  ...        0 min,  0.016 sec
     gradient                   ...        0 min,  0.013 sec
 * total energy  :  -123.8683215 Eh     change       -0.3204195E+02 Eh
   gradient norm :    36.0714852 Eh/α   predicted    -0.2798298E+02 ( -12.67%)
   displ. norm   :     0.9997304 α      lambda       -0.3606111E+02
   maximum displ.:     0.9987832 α      in ANC's #1, #2, #17, ...

........................................................................
.............................. CYCLE    5 ..............................
........................................................................

 iter      E             dE          RMSdq      gap      omega  full diag
   1    -41.8441953 -0.418442E+02  0.300E+00    1.44       0.0  T
   2    -41.7553558  0.888395E-01  0.309E+00    0.85       1.0  T
   3    -42.0457765 -0.290421E+00  0.118E+00    1.09       1.0  T
   4    -42.0493742 -0.359769E-02  0.424E-01    0.86       1.0  T
   5    -42.0518891 -0.251498E-02  0.194E-01    0.92       1.0  T
   6    -42.0525734 -0.684269E-03  0.102E-01    0.94       1.0  T
   7    -42.0527441 -0.170719E-03  0.449E-02    0.95       1.0  T
   8    -42.0527662 -0.220365E-04  0.299E-02    0.94       1.0  T
   9    -42.0527820 -0.158169E-04  0.811E-03    0.94       2.5  T
  10    -42.0527833 -0.132818E-05  0.365E-03    0.94       5.5  T
  11    -42.0527834 -0.100081E-06  0.924E-04    0.94      21.6  T
  12    -42.0527834 -0.868344E-08  0.368E-04    0.94      54.4  T
     SCC iter.                  ...        0 min,  0.016 sec
     gradient                   ...        0 min,  0.013 sec
 * total energy  :  -163.0044524 Eh     change       -0.3913613E+02 Eh
   gradient norm :    38.3837141 Eh/α   predicted    -0.3605139E+02 (  -7.88%)
   displ. norm   :     0.9996687 α      lambda       -0.3837000E+02
   maximum displ.:     0.9981208 α      in ANC's #1, #3, #2, ...

........................................................................
.............................. CYCLE    6 ..............................
........................................................................

 iter      E             dE          RMSdq      gap      omega  full diag
   1    -41.3282838 -0.413283E+02  0.405E+00    0.18       0.0  T
   2    -40.7149836  0.613300E+00  0.565E+00    1.57       1.0  T
   3    -41.9348449 -0.121986E+01  0.195E+00    0.53       1.0  T
   4    -41.9586785 -0.238336E-01  0.160E+00    0.47       1.0  T
   5    -41.9577673  0.911271E-03  0.119E+00    0.49       1.0  T
   6    -41.9542539  0.351332E-02  0.699E-01    0.36       1.0  T
   7    -41.9718596 -0.176057E-01  0.199E-01    0.39       1.0  T
   8    -41.9725495 -0.689902E-03  0.103E-01    0.39       1.0  T
   9    -41.9724758  0.737183E-04  0.628E-02    0.39       1.0  T
  10    -41.9725867 -0.110939E-03  0.213E-02    0.39       1.0  T
  11    -41.9725965 -0.978659E-05  0.568E-03    0.40       3.5  T
  12    -41.9725966 -0.120932E-06  0.341E-03    0.40       5.9  T
  13    -41.9725968 -0.140008E-06  0.868E-04    0.39      23.0  T
  14    -41.9725968 -0.354620E-08  0.627E-04    0.39      31.9  T
     SCC iter.                  ...        0 min,  0.019 sec
     gradient                   ...        0 min,  0.013 sec
 * total energy  :  -171.8991340 Eh     change       -0.8894682E+01 Eh
   gradient norm :     8.0820073 Eh/α   predicted    -0.3835729E+02 ( 331.24%)
   displ. norm   :     0.2548877 α      lambda       -0.1546619E+01
   maximum displ.:     0.1668544 α      in ANC's #1, #3, #17, ...

........................................................................
.............................. CYCLE    7 ..............................
........................................................................

 iter      E             dE          RMSdq      gap      omega  full diag
   1    -41.9970004 -0.419970E+02  0.167E+00    1.31       0.0  T
   2    -41.7305412  0.266459E+00  0.303E+00    0.28       1.0  T
   3    -42.0923071 -0.361766E+00  0.456E-01    0.60       1.0  T
   4    -42.0953464 -0.303929E-02  0.305E-01    0.51       1.0  T
   5    -42.0963537 -0.100735E-02  0.177E-01    0.53       1.0  T
   6    -42.0967463 -0.392610E-03  0.923E-02    0.50       1.0  T
   7    -42.0969214 -0.175076E-03  0.281E-02    0.52       1.0  T
   8    -42.0969337 -0.123354E-04  0.123E-02    0.52       1.6  T
   9    -42.0969341 -0.348158E-06  0.659E-03    0.52       3.0  T
  10    -42.0969353 -0.116904E-05  0.140E-03    0.52      14.3  T
  11    -42.0969353 -0.142866E-07  0.629E-04    0.52      31.8  T
  12    -42.0969353 -0.490689E-08  0.166E-04    0.52     120.2  T
     SCC iter.                  ...        0 min,  0.016 sec
     gradient                   ...        0 min,  0.013 sec
 * total energy  :  -168.8496211 Eh     change        0.3049513E+01 Eh
   gradient norm :    73.7202408 Eh/α   predicted    -0.8235504E+00 (-127.01%)
   displ. norm   :     0.3648014 α      lambda       -0.8675461E+01
   maximum displ.:     0.3345329 α      in ANC's #3, #17, #1, ...

........................................................................
.............................. CYCLE    8 ..............................
........................................................................

 iter      E             dE          RMSdq      gap      omega  full diag
   1    -42.0946510 -0.420947E+02  0.153E+00    1.48       0.0  T
   2    -41.9093045  0.185346E+00  0.257E+00    0.27       1.0  T
   3    -42.1649199 -0.255615E+00  0.532E-01    0.83       1.0  T
   4    -42.1677079 -0.278805E-02  0.337E-01    0.79       1.0  T
   5    -42.1683435 -0.635569E-03  0.118E-01    0.79       1.0  T
   6    -42.1682955  0.479736E-04  0.865E-02    0.78       1.0  T
   7    -42.1685288 -0.233273E-03  0.226E-02    0.79       1.0  T
   8    -42.1685394 -0.106040E-04  0.823E-03    0.79       2.4  T
   9    -42.1685396 -0.144164E-06  0.362E-03    0.79       5.5  T
  10    -42.1685399 -0.333583E-06  0.152E-03    0.79      13.1  T
  11    -42.1685399 -0.124874E-07  0.770E-04    0.79      26.0  T
  12    -42.1685399 -0.894593E-08  0.218E-04    0.79      91.8  T
     SCC iter.                  ...        0 min,  0.016 sec
     gradient                   ...        0 min,  0.013 sec
 * total energy  :  -170.2542410 Eh     change       -0.1404620E+01 Eh
   gradient norm :    25.4530257 Eh/α   predicted    -0.4914993E+01 ( 249.92%)
   displ. norm   :     0.7831730 α      lambda       -0.1213586E+02
   maximum displ.:     0.6198408 α      in ANC's #3, #1, #17, ...

........................................................................
.............................. CYCLE    9 ..............................
........................................................................

 iter      E             dE          RMSdq      gap      omega  full diag
   1    -41.0244109 -0.410244E+02  0.471E+00    0.31       0.0  T
   2    -40.3632309  0.661180E+00  0.625E+00    1.28       1.0  T
   3    -41.9204781 -0.155725E+01  0.235E+00    1.08       1.0  T
   4    -41.9740364 -0.535584E-01  0.173E+00    1.03       1.0  T
   5    -42.0024792 -0.284428E-01  0.120E+00    0.81       1.0  T
   6    -42.0223088 -0.198295E-01  0.399E-01    0.46       1.0  T
   7    -42.0278329 -0.552414E-02  0.225E-01    0.53       1.0  T
   8    -42.0285957 -0.762761E-03  0.132E-01    0.54       1.0  T
   9    -42.0288395 -0.243887E-03  0.596E-02    0.56       1.0  T
  10    -42.0289280 -0.884510E-04  0.106E-02    0.57       1.9  T
  11    -42.0289277  0.271650E-06  0.660E-03    0.57       3.0  T
  12    -42.0289280 -0.324503E-06  0.376E-03    0.57       5.3  T
  13    -42.0289283 -0.289087E-06  0.102E-03    0.57      19.6  T
  14    -42.0289284 -0.229766E-07  0.293E-04    0.57      68.4  T
  15    -42.0289284 -0.685922E-09  0.197E-04    0.57     101.5  T
     SCC iter.                  ...        0 min,  0.020 sec
     gradient                   ...        0 min,  0.013 sec
 * total energy  :  -164.9790650 Eh     change        0.5275176E+01 Eh
   gradient norm :    37.1399499 Eh/α   predicted    -0.9790031E+01 (-285.59%)
   displ. norm   :     0.4222026 α      lambda       -0.1337905E+02
   maximum displ.:     0.3064513 α      in ANC's #3, #1, #21, ...

........................................................................
.............................. CYCLE   10 ..............................
........................................................................

 iter      E             dE          RMSdq      gap      omega  full diag
   1    -42.0351894 -0.420352E+02  0.178E+00    1.54       0.0  T
   2    -41.7411327  0.294057E+00  0.317E+00    0.16       1.0  T
   3    -42.1300950 -0.388962E+00  0.607E-01    0.90       1.0  T
   4    -42.1349784 -0.488338E-02  0.359E-01    0.77       1.0  T
   5    -42.1368019 -0.182352E-02  0.190E-01    0.77       1.0  T
   6    -42.1373717 -0.569780E-03  0.842E-02    0.73       1.0  T
   7    -42.1375141 -0.142365E-03  0.240E-02    0.75       1.0  T
   8    -42.1375232 -0.913153E-05  0.102E-02    0.75       2.0  T
   9    -42.1375234 -0.149724E-06  0.462E-03    0.75       4.3  T
  10    -42.1375240 -0.597135E-06  0.138E-03    0.75      14.5  T
  11    -42.1375240 -0.995792E-08  0.573E-04    0.75      34.9  T
  12    -42.1375240 -0.209116E-08  0.193E-04    0.75     103.8  T
     SCC iter.                  ...        0 min,  0.016 sec
     gradient                   ...        0 min,  0.013 sec
 * total energy  :  -172.2421248 Eh     change       -0.7263060E+01 Eh
   gradient norm :     1.9206293 Eh/α   predicted    -0.7881970E+01 (   8.52%)
   displ. norm   :     0.1729448 α      lambda       -0.1421807E+00
   maximum displ.:     0.1162700 α      in ANC's #2, #30, #17, ...

........................................................................
.............................. CYCLE   11 ..............................
........................................................................

 iter      E             dE          RMSdq      gap      omega  full diag
   1    -42.2290624 -0.422291E+02  0.944E-01    1.18       0.0  T
   2    -42.2201216  0.894081E-02  0.986E-01    0.65       1.0  T
   3    -42.2384101 -0.182886E-01  0.486E-01    1.14       1.0  T
   4    -42.2418291 -0.341897E-02  0.381E-01    0.85       1.0  T
   5    -42.2436360 -0.180687E-02  0.198E-01    0.90       1.0  T
   6    -42.2447053 -0.106933E-02  0.550E-02    0.93       1.0  T
   7    -42.2447867 -0.813749E-04  0.130E-02    0.94       1.5  T
   8    -42.2447885 -0.178955E-05  0.591E-03    0.95       3.4  T
   9    -42.2447887 -0.255011E-06  0.319E-03    0.94       6.3  T
  10    -42.2447889 -0.205196E-06  0.992E-04    0.94      20.2  T
  11    -42.2447889 -0.463378E-08  0.546E-04    0.94      36.7  T
     SCC iter.                  ...        0 min,  0.015 sec
     gradient                   ...        0 min,  0.013 sec
 * total energy  :  -172.3468647 Eh     change       -0.1047399E+00 Eh
   gradient norm :     2.6827540 Eh/α   predicted    -0.7322818E-01 ( -30.09%)
   displ. norm   :     0.3257705 α      lambda       -0.2020472E+00
   maximum displ.:     0.1025529 α      in ANC's #37, #30, #17, ...

........................................................................
.............................. CYCLE   12 ..............................
........................................................................

 iter      E             dE          RMSdq      gap      omega  full diag
   1    -42.3493752 -0.423494E+02  0.817E-01    1.24       0.0  T
   2    -42.3468924  0.248276E-02  0.689E-01    0.85       1.0  T
   3    -42.3484442 -0.155177E-02  0.481E-01    1.25       1.0  T
   4    -42.3539574 -0.551318E-02  0.322E-01    0.96       1.0  T
   5    -42.3557931 -0.183575E-02  0.144E-01    1.00       1.0  T
   6    -42.3563603 -0.567161E-03  0.392E-02    1.03       1.0  T
   7    -42.3563931 -0.328110E-04  0.125E-02    1.04       1.6  T
   8    -42.3563941 -0.981006E-06  0.509E-03    1.04       3.9  T
   9    -42.3563942 -0.136773E-06  0.201E-03    1.04      10.0  T
  10    -42.3563943 -0.499024E-07  0.110E-03    1.04      18.2  T
  11    -42.3563943 -0.175270E-07  0.230E-04    1.04      86.9  T
  12    -42.3563943 -0.552696E-09  0.979E-05    1.04     204.3  T
     SCC iter.                  ...        0 min,  0.016 sec
     gradient                   ...        0 min,  0.013 sec
 * total energy  :  -172.4626067 Eh     change       -0.1157420E+00 Eh
   gradient norm :     2.0257618 Eh/α   predicted    -0.1117458E+00 (  -3.45%)
   displ. norm   :     0.4365959 α      lambda       -0.1921870E+00
   maximum displ.:     0.2050893 α      in ANC's #2, #30, #37, ...

........................................................................
.............................. CYCLE   13 ..............................
........................................................................

 iter      E             dE          RMSdq      gap      omega  full diag
   1    -42.4445159 -0.424445E+02  0.850E-01    1.26       0.0  T
   2    -42.4437182  0.797650E-03  0.533E-01    1.24       1.0  T
   3    -42.4339999  0.971832E-02  0.684E-01    0.99       1.0  T
   4    -42.4475585 -0.135586E-01  0.227E-01    1.31       1.0  T
   5    -42.4484165 -0.858000E-03  0.172E-01    1.12       1.0  T
   6    -42.4492237 -0.807157E-03  0.345E-02    1.19       1.0  T
   7    -42.4492322 -0.858982E-05  0.164E-02    1.19       1.2  T
   8    -42.4492352 -0.293557E-05  0.759E-03    1.19       2.6  T
   9    -42.4492358 -0.668218E-06  0.188E-03    1.19      10.7  T
  10    -42.4492359 -0.499891E-07  0.920E-04    1.19      21.7  T
  11    -42.4492359 -0.206892E-08  0.209E-04    1.19      95.6  T
     SCC iter.                  ...        0 min,  0.015 sec
     gradient                   ...        0 min,  0.013 sec
 * total energy  :  -172.1334530 Eh     change        0.3291537E+00 Eh
   gradient norm :    13.8271163 Eh/α   predicted    -0.1144105E+00 (-134.76%)
   displ. norm   :     0.1619119 α      lambda       -0.1004143E+01
   maximum displ.:     0.1219229 α      in ANC's #2, #9, #30, ...

........................................................................
.............................. CYCLE   14 ..............................
........................................................................

 iter      E             dE          RMSdq      gap      omega  full diag
   1    -42.4213594 -0.424214E+02  0.300E-01    1.12       0.0  T
   2    -42.4212275  0.131886E-03  0.204E-01    1.14       1.0  T
   3    -42.4206987  0.528806E-03  0.208E-01    1.18       1.0  T
   4    -42.4215989 -0.900124E-03  0.985E-02    1.10       1.0  T
   5    -42.4218539 -0.255000E-03  0.633E-02    1.18       1.0  T
   6    -42.4219659 -0.112053E-03  0.153E-02    1.16       1.3  T
   7    -42.4219706 -0.463624E-05  0.544E-03    1.15       3.7  T
   8    -42.4219709 -0.312308E-06  0.243E-03    1.15       8.2  T
   9    -42.4219709 -0.737385E-07  0.616E-04    1.15      32.5  T
  10    -42.4219709 -0.594186E-08  0.274E-04    1.15      73.0  T
     SCC iter.                  ...        0 min,  0.014 sec
     gradient                   ...        0 min,  0.013 sec
 * total energy  :  -172.5305341 Eh     change       -0.3970811E+00 Eh
   gradient norm :     1.1945250 Eh/α   predicted    -0.5152331E+00 (  29.76%)
   displ. norm   :     0.0905004 α      lambda       -0.2354777E-01
   maximum displ.:     0.0311328 α      in ANC's #30, #37, #2, ...

........................................................................
.............................. CYCLE   15 ..............................
........................................................................

 iter      E             dE          RMSdq      gap      omega  full diag
   1    -42.4346791 -0.424347E+02  0.139E-01    1.19       0.0  T
   2    -42.4343686  0.310459E-03  0.121E-01    1.23       1.0  T
   3    -42.4345226 -0.154025E-03  0.112E-01    1.16       1.0  T
   4    -42.4348579 -0.335229E-03  0.315E-02    1.20       1.0  T
   5    -42.4348588 -0.986425E-06  0.259E-02    1.18       1.0  T
   6    -42.4348785 -0.196228E-04  0.678E-03    1.19       2.9  T
   7    -42.4348793 -0.860060E-06  0.274E-03    1.19       7.3  T
   8    -42.4348794 -0.102316E-06  0.126E-03    1.20      15.9  T
   9    -42.4348795 -0.180134E-07  0.381E-04    1.20      52.5  T
  10    -42.4348795 -0.180577E-08  0.136E-04    1.20     147.1  T
     SCC iter.                  ...        0 min,  0.014 sec
     gradient                   ...        0 min,  0.013 sec
 * total energy  :  -172.5519122 Eh     change       -0.2137811E-01 Eh
   gradient norm :     0.5284597 Eh/α   predicted    -0.1187054E-01 ( -44.47%)
   displ. norm   :     0.4160473 α      lambda       -0.8543026E-01
   maximum displ.:     0.1432475 α      in ANC's #37, #30, #2, ...

........................................................................
.............................. CYCLE   16 ..............................
........................................................................

 iter      E             dE          RMSdq      gap      omega  full diag
   1    -42.4712267 -0.424712E+02  0.606E-01    1.39       0.0  T
   2    -42.4674837  0.374308E-02  0.459E-01    1.44       1.0  T
   3    -42.4682013 -0.717596E-03  0.482E-01    1.26       1.0  T
   4    -42.4745816 -0.638034E-02  0.118E-01    1.41       1.0  T
   5    -42.4745237  0.579381E-04  0.956E-02    1.36       1.0  T
   6    -42.4747876 -0.263982E-03  0.270E-02    1.40       1.0  T
   7    -42.4747996 -0.119497E-04  0.111E-02    1.40       1.8  T
   8    -42.4748008 -0.122165E-05  0.558E-03    1.40       3.6  T
   9    -42.4748011 -0.279627E-06  0.153E-03    1.40      13.1  T
  10    -42.4748011 -0.179999E-07  0.556E-04    1.40      36.0  T
  11    -42.4748011 -0.358334E-09  0.189E-04    1.40     105.6  T
     SCC iter.                  ...        0 min,  0.015 sec
     gradient                   ...        0 min,  0.013 sec
 * total energy  :  -172.6050364 Eh     change       -0.5312413E-01 Eh
   gradient norm :     1.6686174 Eh/α   predicted    -0.5011081E-01 (  -5.67%)
   displ. norm   :     0.2082814 α      lambda       -0.2137240E-01
   maximum displ.:     0.0733059 α      in ANC's #37, #30, #15, ...

........................................................................
.............................. CYCLE   17 ..............................
........................................................................

 iter      E             dE          RMSdq      gap      omega  full diag
   1    -42.4838465 -0.424838E+02  0.287E-01    1.50       0.0  T
   2    -42.4830640  0.782431E-03  0.203E-01    1.51       1.0  T
   3    -42.4830001  0.639609E-04  0.238E-01    1.44       1.0  T
   4    -42.4845534 -0.155328E-02  0.607E-02    1.49       1.0  T
   5    -42.4845763 -0.229519E-04  0.293E-02    1.48       1.0  T
   6    -42.4845979 -0.215529E-04  0.118E-02    1.49       1.7  T
   7    -42.4846007 -0.287312E-05  0.520E-03    1.49       3.8  T
   8    -42.4846009 -0.199238E-06  0.245E-03    1.49       8.2  T
   9    -42.4846010 -0.762028E-07  0.679E-04    1.49      29.5  T
  10    -42.4846010 -0.232347E-08  0.238E-04    1.49      84.2  T
     SCC iter.                  ...        0 min,  0.014 sec
     gradient                   ...        0 min,  0.013 sec
 * total energy  :  -172.6213973 Eh     change       -0.1636097E-01 Eh
   gradient norm :     1.1086197 Eh/α   predicted    -0.1115069E-01 ( -31.85%)
   displ. norm   :     0.2221998 α      lambda       -0.1701539E-01
   maximum displ.:     0.0789284 α      in ANC's #37, #30, #15, ...

........................................................................
.............................. CYCLE   18 ..............................
........................................................................

 iter      E             dE          RMSdq      gap      omega  full diag
   1    -42.4904124 -0.424904E+02  0.294E-01    1.59       0.0  T
   2    -42.4898616  0.550874E-03  0.191E-01    1.57       1.0  T
   3    -42.4896239  0.237678E-03  0.238E-01    1.55       1.0  T
   4    -42.4911912 -0.156729E-02  0.640E-02    1.57       1.0  T
   5    -42.4912116 -0.203983E-04  0.264E-02    1.58       1.0  T
   6    -42.4912274 -0.158439E-04  0.116E-02    1.57       1.7  T
   7    -42.4912302 -0.282656E-05  0.447E-03    1.57       4.5  T
   8    -42.4912303 -0.102637E-06  0.164E-03    1.57      12.2  T
   9    -42.4912304 -0.426361E-07  0.643E-04    1.57      31.1  T
  10    -42.4912304 -0.297391E-08  0.205E-04    1.57      97.4  T
     SCC iter.                  ...        0 min,  0.014 sec
     gradient                   ...        0 min,  0.013 sec
 * total energy  :  -172.6321370 Eh     change       -0.1073968E-01 Eh
   gradient norm :     0.1872706 Eh/α   predicted    -0.8928530E-02 ( -16.86%)
   displ. norm   :     0.1172168 α      lambda       -0.4860781E-02
   maximum displ.:     0.0417875 α      in ANC's #37, #30, #15, ...

........................................................................
.............................. CYCLE   19 ..............................
........................................................................

 iter      E             dE          RMSdq      gap      omega  full diag
   1    -42.4946792 -0.424947E+02  0.148E-01    1.62       0.0  T
   2    -42.4946244  0.547904E-04  0.918E-02    1.61       1.0  T
   3    -42.4945611  0.632643E-04  0.113E-01    1.61       1.0  T
   4    -42.4949136 -0.352465E-03  0.332E-02    1.60       1.0  T
   5    -42.4949079  0.565730E-05  0.205E-02    1.61       1.0  T
   6    -42.4949202 -0.122527E-04  0.645E-03    1.61       3.1  T
   7    -42.4949210 -0.787025E-06  0.222E-03    1.61       9.0  T
   8    -42.4949210 -0.315217E-07  0.111E-03    1.61      18.0  T
   9    -42.4949210 -0.154872E-07  0.331E-04    1.61      60.4  T
  10    -42.4949210 -0.466819E-09  0.106E-04    1.61     188.3  T
     SCC iter.                  ...        0 min,  0.014 sec
     gradient                   ...        0 min,  0.013 sec
 * total energy  :  -172.6359553 Eh     change       -0.3818267E-02 Eh
   gradient norm :     0.2482613 Eh/α   predicted    -0.2464254E-02 ( -35.46%)
   displ. norm   :     0.1642445 α      lambda       -0.8276166E-02
   maximum displ.:     0.0571453 α      in ANC's #37, #15, #41, ...

........................................................................
.............................. CYCLE   20 ..............................
........................................................................

 iter      E             dE          RMSdq      gap      omega  full diag
   1    -42.5012659 -0.425013E+02  0.197E-01    1.66       0.0  T
   2    -42.5013920 -0.126101E-03  0.117E-01    1.66       1.0  T
   3    -42.5012639  0.128119E-03  0.131E-01    1.66       1.0  T
   4    -42.5017558 -0.491948E-03  0.395E-02    1.65       1.0  T
   5    -42.5017355  0.203325E-04  0.278E-02    1.67       1.0  T
   6    -42.5017593 -0.237889E-04  0.785E-03    1.65       2.5  T
   7    -42.5017603 -0.108125E-05  0.287E-03    1.66       7.0  T
   8    -42.5017605 -0.120102E-06  0.143E-03    1.66      13.9  T
   9    -42.5017605 -0.129430E-07  0.432E-04    1.66      46.2  T
  10    -42.5017605 -0.129004E-08  0.211E-04    1.66      94.6  T
     SCC iter.                  ...        0 min,  0.014 sec
     gradient                   ...        0 min,  0.013 sec
 * total energy  :  -172.6423446 Eh     change       -0.6389315E-02 Eh
   gradient norm :     0.2609762 Eh/α   predicted    -0.4250311E-02 ( -33.48%)
   displ. norm   :     0.2005209 α      lambda       -0.1204947E-01
   maximum displ.:     0.0614562 α      in ANC's #37, #48, #17, ...
 * RMSD in coord.:     1.0694848 α      energy gain  -0.1209492E+03 Eh

generating ANC from model Hessian ...
Using Lindh-Hessian (1995)
 Shifting diagonal of input Hessian by    3.6235220115763731     
 Lowest  eigenvalues of input Hessian
    0.010000    0.000000    0.000000    0.000000    0.000000    0.000000
    0.000000    3.626134    3.627569    3.631121    3.632581    3.634109
    3.636595    3.637413    3.639549    3.643034    3.644393    3.648441
 Highest eigenvalues
    5.794978    5.903031    5.912417    6.173825  155.909864  164.506255


........................................................................
.............................. CYCLE   21 ..............................
........................................................................

 iter      E             dE          RMSdq      gap      omega  full diag
   1    -42.5116511 -0.425117E+02  0.231E-01    1.72       0.0  T
   2    -42.5120584 -0.407326E-03  0.136E-01    1.73       1.0  T
   3    -42.5118493  0.209160E-03  0.122E-01    1.72       1.0  T
   4    -42.5121727 -0.323439E-03  0.704E-02    1.71       1.0  T
   5    -42.5122712 -0.984858E-04  0.252E-02    1.73       1.0  T
   6    -42.5122895 -0.183502E-04  0.102E-02    1.72       2.0  T
   7    -42.5122921 -0.261821E-05  0.283E-03    1.72       7.1  T
   8    -42.5122922 -0.530553E-07  0.155E-03    1.72      12.9  T
   9    -42.5122922 -0.215992E-07  0.489E-04    1.72      40.9  T
  10    -42.5122922 -0.387918E-08  0.160E-04    1.72     124.8  T
     SCC iter.                  ...        0 min,  0.014 sec
     gradient                   ...        0 min,  0.013 sec
 * total energy  :  -172.6514976 Eh     change       -0.9152994E-02 Eh
   gradient norm :     0.1752053 Eh/α   predicted     0.0000000E+00 (-100.00%)
   displ. norm   :     0.6921411 α      lambda       -0.2115298E-01
   maximum displ.:     0.6911849 α      in ANC's #1, #58, #48, ...

........................................................................
.............................. CYCLE   22 ..............................
........................................................................

 iter      E             dE          RMSdq      gap      omega  full diag
   1    -42.5048060 -0.425048E+02  0.101E+00    1.68       0.0  T
   2    -42.5008035  0.400247E-02  0.668E-01    1.61       1.0  T
   3    -42.4908105  0.999295E-02  0.757E-01    1.53       1.0  T
   4    -42.5070553 -0.162448E-01  0.308E-01    1.86       1.0  T
   5    -42.5099384 -0.288309E-02  0.863E-02    1.71       1.0  T
   6    -42.5100271 -0.887505E-04  0.375E-02    1.73       1.0  T
   7    -42.5100364 -0.923000E-05  0.205E-02    1.73       1.0  T
   8    -42.5100439 -0.754298E-05  0.531E-03    1.73       3.8  T
   9    -42.5100443 -0.355906E-06  0.139E-03    1.73      14.4  T
  10    -42.5100443  0.913977E-08  0.866E-04    1.73      23.1  T
  11    -42.5100443 -0.160650E-07  0.271E-04    1.73      73.9  T
     SCC iter.                  ...        0 min,  0.015 sec
     gradient                   ...        0 min,  0.013 sec
 * total energy  :  -149.4850998 Eh     change        0.2316640E+02 Eh
   gradient norm :    40.8386896 Eh/α   predicted    -0.1567692E-01 (-100.07%)
   displ. norm   :     0.5103237 α      lambda       -0.2083931E+02
   maximum displ.:     0.5097321 α      in ANC's #1, #41, #58, ...

........................................................................
.............................. CYCLE   23 ..............................
........................................................................

 iter      E             dE          RMSdq      gap      omega  full diag
   1    -42.5204683 -0.425205E+02  0.732E-01    1.65       0.0  T
   2    -42.5185854  0.188292E-02  0.497E-01    1.75       1.0  T
   3    -42.5140317  0.455369E-02  0.518E-01    1.59       1.0  T
   4    -42.5215266 -0.749493E-02  0.169E-01    1.71       1.0  T
   5    -42.5225074 -0.980767E-03  0.630E-02    1.77       1.0  T
   6    -42.5225881 -0.807242E-04  0.229E-02    1.75       1.0  T
   7    -42.5225893 -0.113233E-05  0.113E-02    1.75       1.8  T
   8    -42.5225908 -0.153003E-05  0.285E-03    1.75       7.0  T
   9    -42.5225909 -0.861863E-07  0.909E-04    1.75      22.0  T
  10    -42.5225909 -0.775211E-08  0.386E-04    1.75      51.8  T
     SCC iter.                  ...        0 min,  0.014 sec
     gradient                   ...        0 min,  0.013 sec
 * total energy  :  -169.2827628 Eh     change       -0.1979766E+02 Eh
   gradient norm :    30.5771388 Eh/α   predicted    -0.1313331E+02 ( -33.66%)
   displ. norm   :     0.7245200 α      lambda       -0.2214489E+02
   maximum displ.:     0.7222261 α      in ANC's #1, #58, #41, ...

........................................................................
.............................. CYCLE   24 ..............................
........................................................................

 iter      E             dE          RMSdq      gap      omega  full diag
   1    -42.4661900 -0.424662E+02  0.111E+00    1.33       0.0  T
   2    -42.4512746  0.149155E-01  0.961E-01    1.69       1.0  T
   3    -42.4657986 -0.145240E-01  0.675E-01    1.38       1.0  T
   4    -42.4727109 -0.691235E-02  0.280E-01    1.41       1.0  T
   5    -42.4756584 -0.294750E-02  0.911E-02    1.51       1.0  T
   6    -42.4757687 -0.110295E-03  0.471E-02    1.49       1.0  T
   7    -42.4757729 -0.417506E-05  0.161E-02    1.49       1.2  T
   8    -42.4757785 -0.562108E-05  0.430E-03    1.49       4.7  T
   9    -42.4757787 -0.200488E-06  0.205E-03    1.49       9.7  T
  10    -42.4757787 -0.267167E-07  0.799E-04    1.49      25.0  T
  11    -42.4757788 -0.505187E-08  0.380E-04    1.49      52.7  T
     SCC iter.                  ...        0 min,  0.015 sec
     gradient                   ...        0 min,  0.013 sec
 * total energy  :  -171.0318166 Eh     change       -0.1749054E+01 Eh
   gradient norm :    43.7980305 Eh/α   predicted    -0.1688470E+02 ( 865.36%)
   displ. norm   :     0.8004158 α      lambda       -0.3500927E+02
   maximum displ.:     0.7890735 α      in ANC's #1, #58, #41, ...

........................................................................
.............................. CYCLE   25 ..............................
........................................................................

 iter      E             dE          RMSdq      gap      omega  full diag
   1    -42.3196150 -0.423196E+02  0.169E+00    0.83       0.0  T
   2    -42.1537882  0.165827E+00  0.242E+00    1.40       1.0  T
   3    -42.3714218 -0.217634E+00  0.690E-01    1.21       1.0  T
   4    -42.3603112  0.111107E-01  0.708E-01    0.88       1.0  T
   5    -42.3771571 -0.168460E-01  0.197E-01    1.16       1.0  T
   6    -42.3779420 -0.784899E-03  0.800E-02    1.16       1.0  T
   7    -42.3780864 -0.144342E-03  0.250E-02    1.16       1.0  T
   8    -42.3780884 -0.207718E-05  0.121E-02    1.16       1.7  T
   9    -42.3780885 -0.217550E-07  0.326E-03    1.16       6.1  T
  10    -42.3780886 -0.138334E-06  0.135E-03    1.16      14.8  T
  11    -42.3780886 -0.229170E-07  0.637E-04    1.16      31.4  T
  12    -42.3780886 -0.140560E-09  0.290E-04    1.16      69.0  T
     SCC iter.                  ...        0 min,  0.016 sec
     gradient                   ...        0 min,  0.013 sec
 * total energy  :  -148.3374423 Eh     change        0.2269437E+02 Eh
   gradient norm :    40.8147396 Eh/α   predicted    -0.2871929E+02 (-226.55%)
   displ. norm   :     0.3456150 α      lambda       -0.1396377E+02
   maximum displ.:     0.3301008 α      in ANC's #1, #58, #41, ...

........................................................................
.............................. CYCLE   26 ..............................
........................................................................

 iter      E             dE          RMSdq      gap      omega  full diag
   1    -42.4192002 -0.424192E+02  0.757E-01    1.45       0.0  T
   2    -42.3853270  0.338732E-01  0.107E+00    1.01       1.0  T
   3    -42.4307041 -0.453770E-01  0.325E-01    1.35       1.0  T
   4    -42.4314988 -0.794760E-03  0.861E-02    1.32       1.0  T
   5    -42.4315134 -0.145920E-04  0.575E-02    1.33       1.0  T
   6    -42.4315610 -0.475714E-04  0.249E-02    1.31       1.0  T
   7    -42.4315784 -0.174217E-04  0.113E-02    1.32       1.8  T
   8    -42.4315814 -0.297445E-05  0.361E-03    1.32       5.5  T
   9    -42.4315815 -0.786827E-07  0.163E-03    1.32      12.3  T
  10    -42.4315815 -0.273015E-07  0.640E-04    1.32      31.2  T
  11    -42.4315815 -0.678750E-08  0.214E-04    1.32      93.2  T
     SCC iter.                  ...        0 min,  0.015 sec
     gradient                   ...        0 min,  0.013 sec
 * total energy  :  -162.2008051 Eh     change       -0.1386336E+02 Eh
   gradient norm :    39.3267635 Eh/α   predicted    -0.7815865E+01 ( -43.62%)
   displ. norm   :     0.9734388 α      lambda       -0.3810016E+02
   maximum displ.:     0.9717264 α      in ANC's #1, #41, #49, ...

........................................................................
.............................. CYCLE   27 ..............................
........................................................................

 iter      E             dE          RMSdq      gap      omega  full diag
   1    -42.4753562 -0.424754E+02  0.148E+00    1.73       0.0  T
   2    -42.4116638  0.636924E-01  0.158E+00    1.14       1.0  T
   3    -42.4872004 -0.755367E-01  0.846E-01    1.63       1.0  T
   4    -42.4971671 -0.996669E-02  0.399E-01    1.80       1.0  T
   5    -42.5022269 -0.505979E-02  0.118E-01    1.68       1.0  T
   6    -42.5022782 -0.513053E-04  0.810E-02    1.70       1.0  T
   7    -42.5023309 -0.526863E-04  0.327E-02    1.70       1.0  T
   8    -42.5023404 -0.953885E-05  0.866E-03    1.70       2.3  T
   9    -42.5023416 -0.113818E-05  0.302E-03    1.70       6.6  T
  10    -42.5023416 -0.309029E-07  0.123E-03    1.70      16.3  T
  11    -42.5023416 -0.137045E-07  0.463E-04    1.70      43.2  T
  12    -42.5023416 -0.803638E-09  0.123E-04    1.70     162.6  T
     SCC iter.                  ...        0 min,  0.016 sec
     gradient                   ...        0 min,  0.013 sec
 * total energy  :  -172.5646286 Eh     change       -0.1036382E+02 Eh
   gradient norm :     7.6825003 Eh/α   predicted    -0.3710204E+02 ( 258.00%)
   displ. norm   :     0.3627289 α      lambda       -0.2297402E+01
   maximum displ.:     0.2515177 α      in ANC's #1, #58, #69, ...

........................................................................
.............................. CYCLE   28 ..............................
........................................................................

 iter      E             dE          RMSdq      gap      omega  full diag
   1    -42.4608270 -0.424608E+02  0.556E-01    1.73       0.0  T
   2    -42.4556861  0.514099E-02  0.533E-01    1.60       1.0  T
   3    -42.4584416 -0.275550E-02  0.393E-01    1.66       1.0  T
   4    -42.4617172 -0.327568E-02  0.165E-01    1.79       1.0  T
   5    -42.4625766 -0.859342E-03  0.509E-02    1.69       1.0  T
   6    -42.4626594 -0.828110E-04  0.151E-02    1.71       1.3  T
   7    -42.4626611 -0.170265E-05  0.860E-03    1.71       2.3  T
   8    -42.4626618 -0.684926E-06  0.257E-03    1.71       7.8  T
   9    -42.4626618 -0.509108E-07  0.138E-03    1.71      14.5  T
  10    -42.4626618 -0.216122E-07  0.512E-04    1.71      39.1  T
  11    -42.4626619 -0.149085E-08  0.214E-04    1.71      93.5  T
     SCC iter.                  ...        0 min,  0.015 sec
     gradient                   ...        0 min,  0.013 sec
 * total energy  :  -164.6844962 Eh     change        0.7880132E+01 Eh
   gradient norm :    37.6258784 Eh/α   predicted    -0.1299840E+01 (-116.50%)
   displ. norm   :     0.2959041 α      lambda       -0.1025908E+02
   maximum displ.:     0.2355258 α      in ANC's #58, #1, #69, ...

........................................................................
.............................. CYCLE   29 ..............................
........................................................................

 iter      E             dE          RMSdq      gap      omega  full diag
   1    -42.4973513 -0.424974E+02  0.456E-01    1.67       0.0  T
   2    -42.4945655  0.278574E-02  0.433E-01    1.73       1.0  T
   3    -42.4974060 -0.284044E-02  0.284E-01    1.72       1.0  T
   4    -42.4983544 -0.948424E-03  0.135E-01    1.65       1.0  T
   5    -42.4989454 -0.591013E-03  0.410E-02    1.74       1.0  T
   6    -42.4989888 -0.434231E-04  0.141E-02    1.72       1.4  T
   7    -42.4989919 -0.309335E-05  0.701E-03    1.72       2.9  T
   8    -42.4989922 -0.240022E-06  0.188E-03    1.72      10.6  T
   9    -42.4989922 -0.278932E-07  0.103E-03    1.72      19.4  T
  10    -42.4989922 -0.120959E-07  0.244E-04    1.72      82.0  T
  11    -42.4989922 -0.267001E-09  0.994E-05    1.72     201.2  T
     SCC iter.                  ...        0 min,  0.015 sec
     gradient                   ...        0 min,  0.013 sec
 * total energy  :  -172.1905023 Eh     change       -0.7506006E+01 Eh
   gradient norm :    14.5976097 Eh/α   predicted    -0.5578882E+01 ( -25.67%)
   displ. norm   :     0.3214545 α      lambda       -0.3662697E+01
   maximum displ.:     0.2893142 α      in ANC's #1, #58, #48, ...

........................................................................
.............................. CYCLE   30 ..............................
........................................................................

 iter      E             dE          RMSdq      gap      omega  full diag
   1    -42.4502447 -0.424502E+02  0.565E-01    1.55       0.0  T
   2    -42.4422417  0.800296E-02  0.592E-01    1.69       1.0  T
   3    -42.4515071 -0.926541E-02  0.320E-01    1.59       1.0  T
   4    -42.4536360 -0.212892E-02  0.147E-01    1.57       1.0  T
   5    -42.4539834 -0.347340E-03  0.787E-02    1.65       1.0  T
   6    -42.4541586 -0.175191E-03  0.209E-02    1.62       1.0  T
   7    -42.4541592 -0.602370E-06  0.117E-02    1.61       1.7  T
   8    -42.4541602 -0.106462E-05  0.369E-03    1.62       5.4  T
   9    -42.4541604 -0.176798E-06  0.130E-03    1.62      15.4  T
  10    -42.4541604 -0.139999E-07  0.581E-04    1.62      34.4  T
  11    -42.4541604 -0.284619E-08  0.250E-04    1.62      80.1  T
     SCC iter.                  ...        0 min,  0.015 sec
     gradient                   ...        0 min,  0.013 sec
 * total energy  :  -170.5348419 Eh     change        0.1655660E+01 Eh
   gradient norm :    52.1363860 Eh/α   predicted    -0.2020587E+01 (-222.04%)
   displ. norm   :     0.8734583 α      lambda       -0.1059765E+02
   maximum displ.:     0.7295867 α      in ANC's #1, #58, #69, ...

........................................................................
.............................. CYCLE   31 ..............................
........................................................................

 iter      E             dE          RMSdq      gap      omega  full diag
   1    -42.2053118 -0.422053E+02  0.218E+00    0.12       0.0  T
   2    -41.5432563  0.662056E+00  0.429E+00    1.41       1.0  T
   3    -42.3368331 -0.793577E+00  0.888E-01    1.02       1.0  T
   4    -42.3375357 -0.702697E-03  0.649E-01    0.83       1.0  T
   5    -42.3403897 -0.285400E-02  0.417E-01    0.78       1.0  T
   6    -42.3460042 -0.561443E-02  0.142E-01    0.86       1.0  T
   7    -42.3463931 -0.388917E-03  0.456E-02    0.88       1.0  T
   8    -42.3464058 -0.127365E-04  0.250E-02    0.88       1.0  T
   9    -42.3464091 -0.323825E-05  0.813E-03    0.87       2.5  T
  10    -42.3464110 -0.190946E-05  0.275E-03    0.87       7.3  T
  11    -42.3464110 -0.476061E-07  0.166E-03    0.87      12.0  T
  12    -42.3464110 -0.119295E-07  0.801E-04    0.87      25.0  T
  13    -42.3464110 -0.200018E-08  0.257E-04    0.87      77.9  T
     SCC iter.                  ...        0 min,  0.018 sec
     gradient                   ...        0 min,  0.013 sec
 * total energy  :  -151.6241963 Eh     change        0.1891065E+02 Eh
   gradient norm :    41.0546874 Eh/α   predicted    -0.9341522E+01 (-149.40%)
   displ. norm   :     0.5417407 α      lambda       -0.2103685E+02
   maximum displ.:     0.4783853 α      in ANC's #1, #58, #69, ...

........................................................................
.............................. CYCLE   32 ..............................
........................................................................

 iter      E             dE          RMSdq      gap      omega  full diag
   1    -42.3474567 -0.423475E+02  0.125E+00    1.53       0.0  T
   2    -42.0708729  0.276584E+00  0.266E+00    0.15       1.0  T
   3    -42.3882965 -0.317424E+00  0.492E-01    1.42       1.0  T
   4    -42.3901604 -0.186382E-02  0.278E-01    1.45       1.0  T
   5    -42.3890784  0.108202E-02  0.226E-01    1.35       1.0  T
   6    -42.3910892 -0.201082E-02  0.456E-02    1.41       1.0  T
   7    -42.3911169 -0.277752E-04  0.220E-02    1.40       1.0  T
   8    -42.3911185 -0.156338E-05  0.112E-02    1.40       1.8  T
   9    -42.3911196 -0.111086E-05  0.426E-03    1.40       4.7  T
  10    -42.3911197 -0.109556E-06  0.111E-03    1.40      18.0  T
  11    -42.3911197 -0.845358E-08  0.614E-04    1.40      32.5  T
  12    -42.3911197 -0.338655E-08  0.227E-04    1.40      88.3  T
     SCC iter.                  ...        0 min,  0.016 sec
     gradient                   ...        0 min,  0.013 sec
 * total energy  :  -169.9288560 Eh     change       -0.1830466E+02 Eh
   gradient norm :    28.4174540 Eh/α   predicted    -0.1360545E+02 ( -25.67%)
   displ. norm   :     0.5119364 α      lambda       -0.1189540E+02
   maximum displ.:     0.4291115 α      in ANC's #1, #58, #41, ...

........................................................................
.............................. CYCLE   33 ..............................
........................................................................

 iter      E             dE          RMSdq      gap      omega  full diag
   1    -42.4497762 -0.424498E+02  0.104E+00    1.62       0.0  T
   2    -42.3870394  0.627367E-01  0.142E+00    1.25       1.0  T
   3    -42.4672980 -0.802586E-01  0.520E-01    1.72       1.0  T
   4    -42.4710914 -0.379337E-02  0.167E-01    1.70       1.0  T
   5    -42.4708265  0.264862E-03  0.109E-01    1.63       1.0  T
   6    -42.4712231 -0.396626E-03  0.447E-02    1.70       1.0  T
   7    -42.4712568 -0.336144E-04  0.178E-02    1.69       1.1  T
   8    -42.4712589 -0.212515E-05  0.503E-03    1.69       4.0  T
   9    -42.4712594 -0.521930E-06  0.171E-03    1.69      11.7  T
  10    -42.4712594 -0.302703E-07  0.834E-04    1.69      24.0  T
  11    -42.4712594 -0.326792E-08  0.286E-04    1.69      69.9  T
     SCC iter.                  ...        0 min,  0.015 sec
     gradient                   ...        0 min,  0.013 sec
 * total energy  :  -172.5570366 Eh     change       -0.2628181E+01 Eh
   gradient norm :     6.0523642 Eh/α   predicted    -0.7506481E+01 ( 185.62%)
   displ. norm   :     0.1671023 α      lambda       -0.4076891E+00
   maximum displ.:     0.0887571 α      in ANC's #1, #69, #48, ...

........................................................................
.............................. CYCLE   34 ..............................
........................................................................

 iter      E             dE          RMSdq      gap      omega  full diag
   1    -42.4920537 -0.424921E+02  0.260E-01    1.72       0.0  T
   2    -42.4923889 -0.335184E-03  0.179E-01    1.63       1.0  T
   3    -42.4925945 -0.205540E-03  0.127E-01    1.73       1.0  T
   4    -42.4928034 -0.208908E-03  0.610E-02    1.67       1.0  T
   5    -42.4927617  0.416349E-04  0.462E-02    1.69       1.0  T
   6    -42.4928548 -0.931031E-04  0.123E-02    1.69       1.6  T
   7    -42.4928586 -0.377694E-05  0.430E-03    1.69       4.7  T
   8    -42.4928587 -0.658998E-07  0.116E-03    1.69      17.2  T
   9    -42.4928587 -0.198537E-07  0.449E-04    1.69      44.5  T
  10    -42.4928587 -0.129365E-08  0.199E-04    1.69     100.5  T
     SCC iter.                  ...        0 min,  0.014 sec
     gradient                   ...        0 min,  0.013 sec
 * total energy  :  -172.1227356 Eh     change        0.4343010E+00 Eh
   gradient norm :    15.4146881 Eh/α   predicted    -0.2095376E+00 (-148.25%)
   displ. norm   :     0.1403169 α      lambda       -0.1992570E+01
   maximum displ.:     0.1206583 α      in ANC's #69, #1, #58, ...

........................................................................
.............................. CYCLE   35 ..............................
........................................................................

 iter      E             dE          RMSdq      gap      omega  full diag
   1    -42.4879117 -0.424879E+02  0.238E-01    1.66       0.0  T
   2    -42.4879440 -0.323382E-04  0.167E-01    1.69       1.0  T
   3    -42.4870330  0.911026E-03  0.175E-01    1.68       1.0  T
   4    -42.4881110 -0.107801E-02  0.691E-02    1.67       1.0  T
   5    -42.4881816 -0.706044E-04  0.373E-02    1.70       1.0  T
   6    -42.4882253 -0.436727E-04  0.937E-03    1.68       2.1  T
   7    -42.4882261 -0.873729E-06  0.422E-03    1.68       4.7  T
   8    -42.4882263 -0.115466E-06  0.154E-03    1.68      13.0  T
   9    -42.4882263 -0.374115E-07  0.678E-04    1.68      29.5  T
  10    -42.4882263 -0.377133E-08  0.240E-04    1.68      83.2  T
     SCC iter.                  ...        0 min,  0.014 sec
     gradient                   ...        0 min,  0.013 sec
 * total energy  :  -172.6094616 Eh     change       -0.4867260E+00 Eh
   gradient norm :     3.5166414 Eh/α   predicted    -0.5755719E+00 (  18.25%)
   displ. norm   :     0.1075362 α      lambda       -0.3870734E+00
   maximum displ.:     0.0934425 α      in ANC's #69, #1, #58, ...

........................................................................
.............................. CYCLE   36 ..............................
........................................................................

 iter      E             dE          RMSdq      gap      omega  full diag
   1    -42.4811041 -0.424811E+02  0.251E-01    1.65       0.0  T
   2    -42.4791227  0.198140E-02  0.284E-01    1.68       1.0  T
   3    -42.4814648 -0.234218E-02  0.138E-01    1.64       1.0  T
   4    -42.4819740 -0.509103E-03  0.465E-02    1.66       1.0  T
   5    -42.4819824 -0.849791E-05  0.967E-03    1.66       2.1  T
   6    -42.4819825 -0.847360E-07  0.687E-03    1.65       2.9  T
   7    -42.4819828 -0.292098E-06  0.465E-03    1.66       4.3  T
   8    -42.4819833 -0.434948E-06  0.959E-04    1.66      20.9  T
   9    -42.4819833 -0.890106E-08  0.576E-04    1.65      34.7  T
     SCC iter.                  ...        0 min,  0.013 sec
     gradient                   ...        0 min,  0.013 sec
 * total energy  :  -172.5776641 Eh     change        0.3179749E-01 Eh
   gradient norm :     5.6765363 Eh/α   predicted    -0.7669456E-01 (-341.20%)
   displ. norm   :     0.0520549 α      lambda       -0.2411685E+00
   maximum displ.:     0.0439832 α      in ANC's #69, #48, #41, ...

........................................................................
.............................. CYCLE   37 ..............................
........................................................................

 iter      E             dE          RMSdq      gap      omega  full diag
   1    -42.4840316 -0.424840E+02  0.106E-01    1.65       0.0  T
   2    -42.4837587  0.272930E-03  0.109E-01    1.65       1.0  T
   3    -42.4840251 -0.266433E-03  0.719E-02    1.64       1.0  T
   4    -42.4841630 -0.137936E-03  0.269E-02    1.65       1.0  T
   5    -42.4841658 -0.271547E-05  0.196E-02    1.64       1.0  T
   6    -42.4841769 -0.111555E-04  0.352E-03    1.64       5.7  T
   7    -42.4841770 -0.105662E-06  0.167E-03    1.64      11.9  T
   8    -42.4841770 -0.106665E-07  0.509E-04    1.64      39.3  T
   9    -42.4841770 -0.242193E-08  0.238E-04    1.64      84.0  T
     SCC iter.                  ...        0 min,  0.013 sec
     gradient                   ...        0 min,  0.013 sec
 * total energy  :  -172.6250422 Eh     change       -0.4737809E-01 Eh
   gradient norm :     0.5637200 Eh/α   predicted    -0.3458949E-01 ( -26.99%)
   displ. norm   :     0.0376114 α      lambda       -0.2349341E-01
   maximum displ.:     0.0169275 α      in ANC's #48, #69, #41, ...

........................................................................
.............................. CYCLE   38 ..............................
........................................................................

 iter      E             dE          RMSdq      gap      omega  full diag
   1    -42.4868050 -0.424868E+02  0.590E-02    1.64       0.0  T
   2    -42.4867563  0.486260E-04  0.506E-02    1.64       1.0  T
   3    -42.4867742 -0.178780E-04  0.482E-02    1.63       1.0  T
   4    -42.4868436 -0.693913E-04  0.153E-02    1.64       1.3  T
   5    -42.4868422  0.138874E-05  0.129E-02    1.63       1.6  T
   6    -42.4868472 -0.502384E-05  0.226E-03    1.64       8.9  T
   7    -42.4868473 -0.988390E-07  0.959E-04    1.64      20.9  T
   8    -42.4868473 -0.461810E-08  0.271E-04    1.64      73.8  T
     SCC iter.                  ...        0 min,  0.011 sec
     gradient                   ...        0 min,  0.013 sec
 * total energy  :  -172.6264091 Eh     change       -0.1366884E-02 Eh
   gradient norm :     1.0880799 Eh/α   predicted    -0.2631042E-02 (  92.48%)
   displ. norm   :     0.0475718 α      lambda       -0.3487265E-01
   maximum displ.:     0.0220564 α      in ANC's #48, #41, #69, ...

........................................................................
.............................. CYCLE   39 ..............................
........................................................................

 iter      E             dE          RMSdq      gap      omega  full diag
   1    -42.4910864 -0.424911E+02  0.626E-02    1.63       0.0  T
   2    -42.4910809  0.547202E-05  0.523E-02    1.62       1.0  T
   3    -42.4910669  0.139693E-04  0.398E-02    1.64       1.0  T
   4    -42.4911004 -0.334906E-04  0.318E-02    1.63       1.0  T
   5    -42.4911220 -0.216221E-04  0.132E-02    1.63       1.5  T
   6    -42.4911278 -0.579847E-05  0.273E-03    1.63       7.3  T
   7    -42.4911280 -0.126629E-06  0.131E-03    1.63      15.2  T
   8    -42.4911280 -0.321503E-08  0.470E-04    1.63      42.5  T
   9    -42.4911280 -0.490533E-08  0.128E-04    1.63     156.2  T
     SCC iter.                  ...        0 min,  0.013 sec
     gradient                   ...        0 min,  0.013 sec
 * total energy  :  -172.6313387 Eh     change       -0.4929582E-02 Eh
   gradient norm :     0.4184282 Eh/α   predicted    -0.3201781E-02 ( -35.05%)
   displ. norm   :     0.1224097 α      lambda       -0.6597770E-01
   maximum displ.:     0.0578421 α      in ANC's #48, #41, #22, ...

........................................................................
.............................. CYCLE   40 ..............................
........................................................................

 iter      E             dE          RMSdq      gap      omega  full diag
   1    -42.5003855 -0.425004E+02  0.144E-01    1.63       0.0  T
   2    -42.5004068 -0.212262E-04  0.104E-01    1.61       1.0  T
   3    -42.5001807  0.226066E-03  0.911E-02    1.63       1.0  T
   4    -42.5003451 -0.164379E-03  0.748E-02    1.62       1.0  T
   5    -42.5004961 -0.150994E-03  0.266E-02    1.61       1.0  T
   6    -42.5005209 -0.248038E-04  0.651E-03    1.62       3.1  T
   7    -42.5005217 -0.783978E-06  0.299E-03    1.62       6.7  T
   8    -42.5005217 -0.561541E-07  0.949E-04    1.62      21.1  T
   9    -42.5005217 -0.216803E-07  0.263E-04    1.62      76.0  T
     SCC iter.                  ...        0 min,  0.013 sec
     gradient                   ...        0 min,  0.013 sec
 * total energy  :  -172.6374758 Eh     change       -0.6137123E-02 Eh
   gradient norm :     0.3025262 Eh/α   predicted    -0.4645417E-02 ( -24.31%)
   displ. norm   :     0.1296678 α      lambda       -0.3695972E-01
   maximum displ.:     0.0549819 α      in ANC's #48, #41, #22, ...

........................................................................
.............................. CYCLE   41 ..............................
........................................................................

 iter      E             dE          RMSdq      gap      omega  full diag
   1    -42.5073683 -0.425074E+02  0.142E-01    1.61       0.0  T
   2    -42.5072713  0.970176E-04  0.111E-01    1.60       1.0  T
   3    -42.5068534  0.417939E-03  0.113E-01    1.60       1.0  T
   4    -42.5073724 -0.519030E-03  0.487E-02    1.61       1.0  T
   5    -42.5074337 -0.612613E-04  0.171E-02    1.60       1.2  T
   6    -42.5074417 -0.807108E-05  0.611E-03    1.61       3.3  T
   7    -42.5074424 -0.701098E-06  0.287E-03    1.61       7.0  T
   8    -42.5074425 -0.716076E-07  0.844E-04    1.61      23.7  T
   9    -42.5074425 -0.186047E-07  0.225E-04    1.61      88.9  T
     SCC iter.                  ...        0 min,  0.013 sec
     gradient                   ...        0 min,  0.013 sec
 * total energy  :  -172.6404698 Eh     change       -0.2993981E-02 Eh
   gradient norm :     0.5737885 Eh/α   predicted    -0.2298737E-02 ( -23.22%)
   displ. norm   :     0.0544250 α      lambda       -0.2845035E-01
   maximum displ.:     0.0219215 α      in ANC's #41, #22, #13, ...

........................................................................
.............................. CYCLE   42 ..............................
........................................................................

 iter      E             dE          RMSdq      gap      omega  full diag
   1    -42.5078001 -0.425078E+02  0.736E-02    1.60       0.0  T
   2    -42.5076883  0.111745E-03  0.776E-02    1.62       1.0  T
   3    -42.5078108 -0.122518E-03  0.466E-02    1.61       1.0  T
   4    -42.5078800 -0.691229E-04  0.224E-02    1.61       1.0  T
   5    -42.5078861 -0.616107E-05  0.114E-02    1.62       1.7  T
   6    -42.5078905 -0.441231E-05  0.204E-03    1.61       9.8  T
   7    -42.5078906 -0.528733E-07  0.106E-03    1.61      18.9  T
   8    -42.5078906 -0.433715E-08  0.504E-04    1.61      39.7  T
   9    -42.5078906 -0.447695E-08  0.161E-04    1.61     124.2  T
     SCC iter.                  ...        0 min,  0.012 sec
     gradient                   ...        0 min,  0.013 sec
 * total energy  :  -172.6435399 Eh     change       -0.3070149E-02 Eh
   gradient norm :     0.6110405 Eh/α   predicted    -0.1649178E-02 ( -46.28%)
   displ. norm   :     0.1743810 α      lambda       -0.1667019E+00
   maximum displ.:     0.0677483 α      in ANC's #41, #13, #22, ...
 * RMSD in coord.:     0.1101923 α      energy gain  -0.1195339E-02 Eh

generating ANC from model Hessian ...
Using Lindh-Hessian (1995)
 Shifting diagonal of input Hessian by    3.6237536420651102     
 Lowest  eigenvalues of input Hessian
    0.010000    0.000000    0.000000    0.000000    0.000000    0.000000
    0.000000    3.626456    3.628681    3.631099    3.632178    3.634531
    3.636681    3.637353    3.639010    3.642189    3.644750    3.653013
 Highest eigenvalues
    5.761954    5.865610    5.888576    6.139281  154.165034  162.216043


........................................................................
.............................. CYCLE   43 ..............................
........................................................................

 iter      E             dE          RMSdq      gap      omega  full diag
   1    -42.5028316 -0.425028E+02  0.272E-01    1.60       0.0  T
   2    -42.5020564  0.775196E-03  0.256E-01    1.69       1.0  T
   3    -42.5032990 -0.124255E-02  0.174E-01    1.61       1.0  T
   4    -42.5042772 -0.978248E-03  0.694E-02    1.65       1.0  T
   5    -42.5042641  0.130778E-04  0.492E-02    1.67       1.0  T
   6    -42.5043419 -0.777638E-04  0.720E-03    1.65       2.8  T
   7    -42.5043426 -0.660849E-06  0.356E-03    1.65       5.6  T
   8    -42.5043426 -0.465048E-07  0.158E-03    1.65      12.7  T
   9    -42.5043426 -0.212068E-07  0.509E-04    1.65      39.3  T
  10    -42.5043426 -0.399235E-08  0.222E-04    1.65      90.3  T
     SCC iter.                  ...        0 min,  0.014 sec
     gradient                   ...        0 min,  0.013 sec
 * total energy  :  -172.6537378 Eh     change       -0.1019791E-01 Eh
   gradient norm :     0.8351331 Eh/α   predicted     0.0000000E+00 (-100.00%)
   displ. norm   :     0.9898887 α      lambda       -0.8080136E+00
   maximum displ.:     0.9892085 α      in ANC's #1, #59, #41, ...

........................................................................
.............................. CYCLE   44 ..............................
........................................................................

 iter      E             dE          RMSdq      gap      omega  full diag
   1    -42.4654763 -0.424655E+02  0.149E+00    1.12       0.0  T
   2    -42.4575228  0.795354E-02  0.112E+00    1.66       1.0  T
   3    -42.4736130 -0.160902E-01  0.834E-01    1.25       1.0  T
   4    -42.4875260 -0.139130E-01  0.292E-01    1.42       1.0  T
   5    -42.4877812 -0.255147E-03  0.246E-01    1.51       1.0  T
   6    -42.4896235 -0.184234E-02  0.539E-02    1.46       1.0  T
   7    -42.4896602 -0.366684E-04  0.261E-02    1.46       1.0  T
   8    -42.4896668 -0.666754E-05  0.103E-02    1.46       1.9  T
   9    -42.4896674 -0.595058E-06  0.367E-03    1.46       5.5  T
  10    -42.4896676 -0.120832E-06  0.177E-03    1.46      11.3  T
  11    -42.4896676 -0.158841E-07  0.622E-04    1.46      32.1  T
  12    -42.4896676 -0.424965E-08  0.161E-04    1.46     124.5  T
     SCC iter.                  ...        0 min,  0.016 sec
     gradient                   ...        0 min,  0.013 sec
 * total energy  :  -162.9663278 Eh     change        0.9687410E+01 Eh
   gradient norm :    38.8922644 Eh/α   predicted    -0.7998849E+00 (-108.26%)
   displ. norm   :     0.6091876 α      lambda       -0.2369178E+02
   maximum displ.:     0.6082375 α      in ANC's #1, #41, #59, ...

........................................................................
.............................. CYCLE   45 ..............................
........................................................................

 iter      E             dE          RMSdq      gap      omega  full diag
   1    -42.5230562 -0.425231E+02  0.112E+00    1.71       0.0  T
   2    -42.5224117  0.644505E-03  0.673E-01    1.42       1.0  T
   3    -42.5110125  0.113992E-01  0.778E-01    1.59       1.0  T
   4    -42.5286773 -0.176647E-01  0.246E-01    1.66       1.0  T
   5    -42.5297194 -0.104214E-02  0.156E-01    1.55       1.0  T
   6    -42.5303747 -0.655318E-03  0.410E-02    1.59       1.0  T
   7    -42.5303986 -0.238607E-04  0.193E-02    1.60       1.0  T
   8    -42.5304038 -0.520535E-05  0.801E-03    1.60       2.5  T
   9    -42.5304043 -0.488642E-06  0.217E-03    1.60       9.2  T
  10    -42.5304043 -0.551592E-07  0.744E-04    1.60      26.9  T
  11    -42.5304043 -0.346212E-08  0.303E-04    1.60      65.9  T
     SCC iter.                  ...        0 min,  0.015 sec
     gradient                   ...        0 min,  0.013 sec
================
 final structure:
================
25
 xtb: 6.6.1 (8d0f1dd)
C            3.21786164340000        1.13591514650000        0.01837059260000
N            2.27034809790000        0.05199982890000        0.00038279530000
C            2.54167221030000       -1.23971668410000       -0.00834188300000
N            1.39367826450000       -1.95088267900000       -0.00850347120000
C            0.35269634020000       -1.06748964300000        0.00059917290000
C            0.90759959010000        0.20069750900000        0.00663590170000
C            0.07590235260000        1.39864294500000       -0.00284827040000
O            0.48715076820000        2.53168346660000       -0.01725767220000
N           -1.27221500230000        1.06666939660000        0.00165480230000
C           -2.23229981500000        2.16656245330000       -0.00245172030000
C           -1.84872931540000       -0.19179276200000        0.00496135950000
O           -3.03273030250000       -0.36103538130000        0.00858583760000
N           -0.96599111670000       -1.30060631840000        0.00174701630000
C           -1.52030655580000       -2.64076660390000       -0.00239033190000
H            3.71480285180000        1.18589984860000        0.98803183970000
H            3.97079415090000        0.99383197990000       -0.75543416370000
H            2.68321036910000        2.07051068580000       -0.15067179540000
H            3.52469367910000       -1.66989040330000       -0.01523639120000
H           -1.67672429040000        3.10039111610000        0.00486339690000
H           -2.85755792270000        2.10547813320000       -0.89185337000000
H           -2.87119733260000        2.09858159720000        0.87661144540000
H           -1.20589108080000       -3.18768007210000        0.88663215920000
H           -1.21982032550000       -3.17678505510000       -0.90288069810000
H           -2.60531402170000       -2.54255916880000        0.00649952960000
H            1.32879827740000       -2.95942079410000       -0.01653446370000

 Bond Distances (Angstroems)
 ---------------------------
C1-N2=1.4398         C1-H15=1.0907        C1-H16=1.0890        C1-H17=1.0899        N2-C1=1.4398         N2-C3=1.3199         
N2-C6=1.3709         C3-N2=1.3199         C3-N4=1.3504         C3-H18=1.0730        N4-C3=1.3504         N4-C5=1.3653         
N4-H25=1.0107        C5-N4=1.3653         C5-C6=1.3843         C5-N13=1.3391        C6-N2=1.3709         C6-C5=1.3843         
C6-C7=1.4584         C7-C6=1.4584         C7-O8=1.2055         C7-N9=1.3884         O8-C7=1.2055         N9-C7=1.3884         
N9-C10=1.4600        N9-C11=1.3842        C10-N9=1.4600        C10-H19=1.0866       C10-H20=1.0889       C10-H21=1.0888       
C11-N9=1.3842        C11-O12=1.1960       C11-N13=1.4173       O12-C11=1.1960       N13-C5=1.3391        N13-C11=1.4173       
N13-C14=1.4503       C14-N13=1.4503       C14-H22=1.0901       C14-H23=1.0902       C14-H24=1.0895       H15-C1=1.0907        
H16-C1=1.0890        H17-C1=1.0899        H18-C3=1.0730        H19-C10=1.0866       H20-C10=1.0889       H21-C10=1.0888       
H22-C14=1.0901       H23-C14=1.0902       H24-C14=1.0895       H25-N4=1.0107        
 C  H  Rav=1.0877 sigma=0.0050  Rmin=1.0730  Rmax=1.0907    10
 C  C  Rav=1.4213 sigma=0.0370  Rmin=1.3843  Rmax=1.4584     2
 N  H  Rav=1.0107 sigma=0.0000  Rmin=1.0107  Rmax=1.0107     1
 N  C  Rav=1.3896 sigma=0.0445  Rmin=1.3199  Rmax=1.4600    11
 O  C  Rav=1.2007 sigma=0.0047  Rmin=1.1960  Rmax=1.2055     2

 selected bond angles (degree)
 --------------------
H15-C1-N2=110.21               H16-C1-N2=110.36               H16-C1-H15=108.82              H17-C1-N2=108.71               
H17-C1-H15=108.79              H17-C1-H16=109.93              C3-N2-C1=126.98                C6-N2-C1=124.92                
C6-N2-C3=108.09                N4-C3-N2=109.91                H18-C3-N2=125.50               H18-C3-N4=124.59               
C5-N4-C3=107.90                H25-N4-C3=125.46               H25-N4-C5=126.64               C6-C5-N4=106.69                
N13-C5-N4=129.66               N13-C5-C6=123.66               C5-C6-N2=107.40                C7-C6-N2=130.99                
C7-C6-C5=121.59                O8-C7-C6=125.28                N9-C7-C6=110.94                N9-C7-O8=123.78                
C10-N9-C7=117.28               C11-N9-C7=128.45               C11-N9-C10=114.27              H19-C10-N9=108.13              
H20-C10-N9=109.73              H20-C10-H19=110.32             H21-C10-N9=109.67              H21-C10-H19=110.38             
H21-C10-H20=108.60             

 selected dihedral angles (degree)
 ---------------------------------
C3-N2-C1-H15=289.54           C3-N2-C1-H16= 49.76           C3-N2-C1-H17=170.39           C6-N2-C1-H15=108.66           
C6-N2-C1-H16=228.88           C6-N2-C1-H17=349.51           N4-C3-N2-C1=179.26            N4-C3-N2-C6=  0.00            
H18-C3-N2-C1=359.21           H18-C3-N2-C6=179.97           C5-N4-C3-N2=  0.00            C5-N4-C3-H18=180.05           
H25-N4-C3-N2=179.85           H25-N4-C3-H18=359.90          C6-C5-N4-C3=  0.00            C6-C5-N4-H25=180.14           
N13-C5-N4-C3=179.88           N13-C5-N4-H25=  0.03          C5-C6-N2-C1=180.71            C5-C6-N2-C3=359.97            
C7-C6-N2-C1=  1.78            C7-C6-N2-C3=181.03            N2-C6-C5-N4=  0.03            N2-C6-C5-N13=180.13           
C7-C6-C5-N4=179.08            C7-C6-C5-N13=359.18           O8-C7-C6-N2=359.91            O8-C7-C6-C5=181.10            
N9-C7-C6-N2=179.67            N9-C7-C6-C5=  0.86            C10-N9-C7-C6=179.81           C10-N9-C7-O8=359.58           
C11-N9-C7-C6=359.56           C11-N9-C7-O8=179.33           H19-C10-N9-C7=359.25          H19-C10-N9-C11=179.46         
H20-C10-N9-C7=119.63          H20-C10-N9-C11=299.84         H21-C10-N9-C7=238.84          H21-C10-N9-C11= 59.06         
           -------------------------------------------------
          |                Final Singlepoint                |
           -------------------------------------------------

          ...................................................
          :                      SETUP                      :
          :.................................................:
          :  # basis functions                  67          :
          :  # atomic orbitals                  67          :
          :  # shells                           39          :
          :  # electrons                        74          :
          :  max. iterations                   250          :
          :  Hamiltonian                  GFN2-xTB          :
          :  restarted?                      false          :
          :  GBSA solvation                  false          :
          :  PC potential                    false          :
          :  electronic temp.         5000.0000000     K    :
          :  accuracy                    1.0000000          :
          :  -> integral cutoff          0.2500000E+02      :
          :  -> integral neglect         0.1000000E-07      :
          :  -> SCF convergence          0.1000000E-05 Eh   :
          :  -> wf. convergence          0.1000000E-03 e    :
          :  Broyden damping             0.4000000          :
          ...................................................

 iter      E             dE          RMSdq      gap      omega  full diag
   1    -42.5594627 -0.425595E+02  0.366E+00    2.28       0.0  T
   2    -42.7446489 -0.185186E+00  0.236E+00    3.26       1.0  T
   3    -42.7721375 -0.274886E-01  0.126E+00    3.32       1.0  T
   4    -42.7748074 -0.266990E-02  0.595E-01    3.40       1.0  T
   5    -42.7788221 -0.401471E-02  0.163E-01    3.31       1.0  T
   6    -42.7790442 -0.222082E-03  0.668E-02    3.35       1.0  T
   7    -42.7790724 -0.281956E-04  0.208E-02    3.34       1.0  T
   8    -42.7790772 -0.480157E-05  0.823E-03    3.34       2.4  T
   9    -42.7790779 -0.717401E-06  0.326E-03    3.34       6.1  T
  10    -42.7790780 -0.237108E-07  0.115E-03    3.34      17.4  T
  11    -42.7790780 -0.938491E-08  0.446E-04    3.34      44.8  T
  12    -42.7790780 -0.845631E-09  0.115E-04    3.34     173.9  T

   *** convergence criteria satisfied after 12 iterations ***

         #    Occupation            Energy/Eh            Energy/eV
      -------------------------------------------------------------
         1        2.0000           -0.9185989             -24.9963
       ...           ...                  ...                  ...
        31        1.9996           -0.6230275             -16.9534
        32        1.9995           -0.6194598             -16.8564
        33        1.9979           -0.5974980             -16.2587
        34        1.9932           -0.5789619             -15.7544
        35        1.9817           -0.5631862             -15.3251
        36        1.9779           -0.5602243             -15.2445
        37        1.9748           -0.5581230             -15.1873 (HOMO)
        38        0.0652           -0.4353584             -11.8467 (LUMO)
        39        0.0099           -0.4050466             -11.0219
        40        0.0013           -0.3732223             -10.1559
        41        0.0000           -0.2886862              -7.8556
        42                         -0.2065801              -5.6213
       ...                                ...                  ...
        67                          0.5625652              15.3082
      -------------------------------------------------------------
                  HL-Gap            0.1227646 Eh            3.3406 eV
             Fermi-level           -0.4890456 Eh          -13.3076 eV

 SCC (total)                   0 d,  0 h,  0 min,  0.035 sec
 SCC setup                      ...        0 min,  0.000 sec (  0.553%)
 Dispersion                     ...        0 min,  0.000 sec (  0.572%)
 classical contributions        ...        0 min,  0.000 sec (  0.218%)
 integral evaluation            ...        0 min,  0.005 sec ( 14.428%)
 iterations                     ...        0 min,  0.016 sec ( 46.907%)
 molecular gradient             ...        0 min,  0.013 sec ( 36.926%)
 printout                       ...        0 min,  0.000 sec (  0.356%)

         :::::::::::::::::::::::::::::::::::::::::::::::::::::
         ::                     SUMMARY                     ::
         :::::::::::::::::::::::::::::::::::::::::::::::::::::
         :: total energy             -51.693183639588 Eh    ::
         :: gradient norm             12.292776523925 Eh/a0 ::
         :: HOMO-LUMO gap              3.340595548208 eV    ::
         ::.................................................::
         :: SCC energy               -42.779077977380 Eh    ::
         :: -> isotropic ES            0.141119210083 Eh    ::
         :: -> anisotropic ES         -0.005230247383 Eh    ::
         :: -> anisotropic XC          0.011966619515 Eh    ::
         :: -> dispersion             -0.022657732597 Eh    ::
         :: repulsion energy           0.531105277918 Eh    ::
         :: add. restraining          -9.445325099135 Eh    ::
         :: total charge               1.000000000002 e     ::
         :::::::::::::::::::::::::::::::::::::::::::::::::::::


last geometry written to: xtblast.xyz

########################################################################
[ERROR] Program stopped due to fatal error
-5- Geometry optimization failed
-4- xtb_geoopt: Trying to recover from failed geometry optimization
-3- xtb_geoopt: Geometry optimization did not converge
-2- optimizer_ancopt: Could not relax structure
-1- optimizer_relax: |grad| > 500, something is totally wrong!
########################################################################
