25
 energy: -43.832970413825 gnorm: 0.108513835651 xtb: 6.6.1 (8d0f1dd)
C            3.27898797468548        1.16886590076731        0.05461973321671
N            2.30361707682885        0.09217460898494        0.02621892087904
C            2.58792264143693       -1.22065071408765        0.02341469401307
N            1.42756790014350       -1.93204949863117        0.00015484372212
C            0.38594570928189       -1.04949583406042       -0.00949771601420
C            0.92594836720118        0.22612814449595        0.01112120784431
C            0.08453851925439        1.40190647058396       -0.00239163691144
O            0.48257523953053        2.55585710916536        0.00003405768299
N           -1.26120656806266        1.05833784993807       -0.03033412499162
C           -2.23115869103549        2.14975913143092       -0.04925669170796
C           -1.82511766984503       -0.20146631362875       -0.04703822086946
O           -3.00946240710077       -0.38175843092972       -0.07005523085025
N           -0.93267656493235       -1.30143377247554       -0.03651382432647
C           -1.47532851477986       -2.64562670020589       -0.05807519799829
H            3.76247423384226        1.19817297063843        1.01038195229321
H            4.11107494132761        1.03875613216768       -0.62325597308957
H            2.74234911875702        2.10766194507255       -0.09076330181032
H            3.56390866352520       -1.64472045279362        0.03860381626053
H           -1.68500531242696        3.08591010288671       -0.02428487451168
H           -2.83830832313562        2.09003814876428       -0.95265958105172
H           -2.89002652559621        2.07283515783793        0.81548958343350
H           -1.17726216978278       -3.19332135293596        0.83754858284141
H           -1.14805510047079       -3.17777245741993       -0.95099206237607
H           -2.56095062536068       -2.55844489276288       -0.07420416631585
H            1.37220013894373       -2.94025720108713       -0.01358470852092
25
 energy: -43.837569010339 gnorm: 0.040763569147 xtb: 6.6.1 (8d0f1dd)
C            3.27575307051386        1.17418753685901        0.07283016100449
N            2.31455287431913        0.10580538110134        0.02538956082228
C            2.60300471110301       -1.23287967996197        0.02131942280759
N            1.42206736540452       -1.93336457285980       -0.00174162164765
C            0.39615917865340       -1.04627458608244       -0.01129607536019
C            0.92981541158098        0.23366406003488        0.00663704400646
C            0.09636003262366        1.39665637693369       -0.00595757919845
O            0.48495440785229        2.56798099576161       -0.00122289210689
N           -1.26682303248454        1.05016216866163       -0.03107730586766
C           -2.23052274722701        2.14324586868565       -0.04883588945917
C           -1.82697368257239       -0.20058420099476       -0.04731778908406
O           -3.02331009972036       -0.38566641377104       -0.06994497296707
N           -0.93549832153871       -1.29738227985498       -0.03680545933426
C           -1.47300962180297       -2.63986766831068       -0.05738057367604
H            3.75603734942326        1.20816295663075        1.05064548007498
H            4.07150965275926        1.02997437195849       -0.65960439845427
H            2.73946489676342        2.10552567204772       -0.09841201782184
H            3.57622103915981       -1.66311322524326        0.03874512958581
H           -1.67104943719552        3.07466914395146       -0.02423378066191
H           -2.83725122012729        2.08848486802178       -0.95288161118013
H           -2.88878684466568        2.07141163731215        0.81696427371756
H           -1.17237505660132       -3.18967342874250        0.83708413980122
H           -1.14332588047023       -3.17424837302785       -0.95033087890254
H           -2.55855139276240       -2.55025177151411       -0.07391983922081
H            1.35612939924122       -2.93721878588131       -0.01397244603641
25
 energy: -43.838371912291 gnorm: 0.017333435618 xtb: 6.6.1 (8d0f1dd)
C            3.28339103724660        1.17112897459971        0.06560766517331
N            2.31497931983101        0.11598406984464        0.01145681578438
C            2.60439312942163       -1.23269666955413        0.01901870734543
N            1.41867739940674       -1.93232145985241        0.00109891946396
C            0.39802176790188       -1.04859587677344       -0.00916540221626
C            0.92459334930920        0.23676540288807        0.00504580877302
C            0.09962312470718        1.39141684892091       -0.00160048845255
O            0.47976611134676        2.56922034166794        0.00200518089362
N           -1.27498405032035        1.04882486738662       -0.02822277103802
C           -2.23591851355370        2.14526043602477       -0.04906060960548
C           -1.82492831982833       -0.19920571000424       -0.04577754706022
O           -3.02432293730962       -0.38736875620885       -0.07096047779129
N           -0.94038091101520       -1.29900509908001       -0.03445379573618
C           -1.47629928265643       -2.64247096787767       -0.05697564522184
H            3.76124269684507        1.19596745391369        1.04545293487187
H            4.10079954579934        1.03255582119343       -0.64601412227325
H            2.76144124363530        2.11047536019996       -0.10048369659695
H            3.57620088954984       -1.65469406529239        0.03815704008836
H           -1.68571520896063        3.08402893877527       -0.02393383093187
H           -2.84154127227381        2.09015277774848       -0.95349393237870
H           -2.89636417922135        2.07356059991956        0.81452160664271
H           -1.17847667375694       -3.19658230719920        0.83642837077724
H           -1.14807866007926       -3.17966131432749       -0.95016033239711
H           -2.56226202002471       -2.55787398287330       -0.07472075646112
H            1.36069446622916       -2.93545963232445       -0.00908956081200
25
 energy: -43.838473774291 gnorm: 0.014127954284 xtb: 6.6.1 (8d0f1dd)
C            3.26777760526605        1.17161577776925        0.06366310153842
N            2.30947248378128        0.11283874362337        0.01588495600061
C            2.60107822282876       -1.23726878457554        0.02597725823606
N            1.41642842461311       -1.93656717737200        0.00157063073821
C            0.39802252415503       -1.05523917147875       -0.00701373161632
C            0.91947699714252        0.23181307834405        0.01083106141273
C            0.10667501763624        1.38579529537238       -0.00357745570069
O            0.48352840288173        2.56318077382202       -0.00197126203638
N           -1.27369840929386        1.04857073631082       -0.03082626470651
C           -2.22732667965107        2.14813346438629       -0.04906765858185
C           -1.81911851767587       -0.19725708884944       -0.04757318709482
O           -3.01827939300842       -0.38522168463396       -0.07167928307156
N           -0.94161598262242       -1.30016972908337       -0.03584863116497
C           -1.47533794390695       -2.64212687988687       -0.05765742566945
H            3.75784761132657        1.20637913007167        1.03396571985680
H            4.08867994755164        1.04513023268486       -0.64566068150792
H            2.73209607457939        2.10543495321523       -0.09290491603493
H            3.57293141773143       -1.65261444325382        0.04197478018349
H           -1.67089111812039        3.08338422281963       -0.02489890285360
H           -2.83465065213961        2.09421029796974       -0.95229692182239
H           -2.88344598299418        2.07681845536886        0.81765507579170
H           -1.17490573506904       -3.19259521396321        0.83726478194996
H           -1.14574140272752       -3.17800735684448       -0.95141768098861
H           -2.56105890427216       -2.55642142787069       -0.07459042068262
H            1.36660804421715       -2.94041015223059       -0.01712286133431
25
 energy: -43.838674057368 gnorm: 0.006399678303 xtb: 6.6.1 (8d0f1dd)
C            3.27444299953329        1.16693655145157        0.06779369237292
N            2.31130719458433        0.11154760882340        0.01941810404126
C            2.59974903615333       -1.23617185476096        0.02479603692432
N            1.41603878120391       -1.93239302058633        0.00025184969027
C            0.39798091449736       -1.05045812081820       -0.00937636126154
C            0.92115767595183        0.23611061530206        0.01021288869325
C            0.10518875011617        1.39141003417584       -0.00491225516052
O            0.47864250080674        2.56793280282756       -0.00092644894906
N           -1.27504801261318        1.05108285630002       -0.03128566369974
C           -2.23459562187305        2.14393347995893       -0.04931243989491
C           -1.81975833568437       -0.19599072264179       -0.04753020769594
O           -3.01768911783497       -0.38629475880169       -0.06945884391647
N           -0.93976002526905       -1.29604675193286       -0.03709649005391
C           -1.47272456228868       -2.63808406934123       -0.05726869158288
H            3.76359245273832        1.20252997758541        1.03880735032976
H            4.08864533225483        1.02750816363986       -0.64625369524707
H            2.74677801455029        2.10480372621250       -0.09581878451281
H            3.57196872561219       -1.65477009302481        0.03680886109502
H           -1.67965180701417        3.07880739251786       -0.02408654856440
H           -2.84052441323531        2.08667318964309       -0.95348474918151
H           -2.89253659183166        2.06894889456148        0.81611960709603
H           -1.17147896221746       -3.18776370449337        0.83765436935480
H           -1.14348388486589       -3.17317570087137       -0.95106231369506
H           -2.55838483643433       -2.55092114209324       -0.07334936048593
H            1.36469584538894       -2.93674930191828       -0.01595982485482
25
 energy: -43.838702161138 gnorm: 0.005722760921 xtb: 6.6.1 (8d0f1dd)
C            3.27624496991985        1.17039250249754        0.06727676294279
N            2.31374388347259        0.11156773668015        0.01480049602635
C            2.60164414209294       -1.23504571063054        0.02173404020303
N            1.41808525859688       -1.93168460676378        0.00059780404665
C            0.39771068526934       -1.05145465753722       -0.01085472189369
C            0.92259385966774        0.23539950077020        0.00650014582358
C            0.10522948937964        1.39106029783349       -0.00366763549776
O            0.47823582167762        2.56717354467691        0.00144375898559
N           -1.27540276915311        1.04987427569515       -0.02946664265275
C           -2.23215679884684        2.14591437557563       -0.04864627906508
C           -1.82209489715994       -0.19823811642847       -0.04626194675368
O           -3.02029683381002       -0.38808799286769       -0.06985245630448
N           -0.94053189713791       -1.29868251115614       -0.03625795930230
C           -1.47578003073960       -2.64207821288742       -0.05738192689233
H            3.75784492830284        1.20371730912577        1.04331867816270
H            4.09107073114224        1.03519726663405       -0.64729264312476
H            2.75012595763895        2.10894012549076       -0.09926569119651
H            3.57517547868776       -1.65444360882615        0.03672544758227
H           -1.67494322552072        3.07941277089300       -0.02378400084050
H           -2.83796561785387        2.09244855109653       -0.95309662003669
H           -2.89187281668018        2.07620426118125        0.81587689575041
H           -1.17851393168084       -3.19594340234530        0.83624720208770
H           -1.14781394017999       -3.17910013269620       -0.95028258682436
H           -2.56180223585696       -2.55674279730970       -0.07516817810848
H            1.36602184100101       -2.93639471698636       -0.00856186227667
25
 energy: -43.838749525575 gnorm: 0.002370906005 xtb: 6.6.1 (8d0f1dd)
C            3.27530146529714        1.16931703255348        0.06665446641965
N            2.31342518427936        0.11087360039744        0.01603833448178
C            2.60073399675435       -1.23652245678009        0.02393045032095
N            1.41680223095628       -1.93254483736351       -0.00046968967781
C            0.39756092935945       -1.05187133315485       -0.00926500633044
C            0.92202745642297        0.23514537393039        0.00868546866018
C            0.10712393407455        1.39069455633965       -0.00352687532849
O            0.48018046549450        2.56695578219073       -0.00048180186984
N           -1.27517910710528        1.05046412978605       -0.03017361763341
C           -2.23250742575798        2.14577515004602       -0.04930251210169
C           -1.82144187158914       -0.19694689607510       -0.04668961567556
O           -3.01988673012229       -0.38635628456016       -0.07127648276702
N           -0.94088642548253       -1.29777676200753       -0.03568293414500
C           -1.47458326048285       -2.64088285023028       -0.05689266292668
H            3.76063270912747        1.20162426402160        1.04034125233769
H            4.09056763264886        1.03698000170277       -0.64823676031816
H            2.74605657510790        2.10676327916708       -0.09529942405157
H            3.57390541082317       -1.65527551881759        0.03959789392645
H           -1.67929065443195        3.08191996930134       -0.02482406070337
H           -2.83933537218793        2.09013955933929       -0.95296007913283
H           -2.89071573810401        2.07325273419302        0.81603120231739
H           -1.17466155672068       -3.19238396116309        0.83736148641213
H           -1.14534811762323       -3.17680906675153       -0.95020223861976
H           -2.56059977788894       -2.55586841312966       -0.07384788502007
H            1.36467009938020       -2.93726100122002       -0.01482882773345
25
 energy: -43.838748566372 gnorm: 0.002277655737 xtb: 6.6.1 (8d0f1dd)
C            3.27427575375720        1.16907425485329        0.06626387868305
N            2.31252202133795        0.11128259357984        0.01696759392361
C            2.60017034339774       -1.23595123023825        0.02473523123955
N            1.41690877171327       -1.93238696553209        0.00142959162669
C            0.39763161568277       -1.05213513918460       -0.00874263326573
C            0.92105148912893        0.23538046797654        0.00928722813082
C            0.10699882525475        1.39045442904351       -0.00394509006903
O            0.47848508816367        2.56711369759495       -0.00048813140116
N           -1.27573937721287        1.04966989580748       -0.03041811855044
C           -2.23211872707806        2.14503116439532       -0.04871688569621
C           -1.82109495523269       -0.19743956182188       -0.04716680430486
O           -3.01933954726318       -0.38742111740970       -0.07016003712496
N           -0.94061036889772       -1.29781750017450       -0.03623473478274
C           -1.47439861218899       -2.64026712481730       -0.05798043023197
H            3.75975263370940        1.20437280400543        1.03939831012125
H            4.09070872488335        1.03239416925517       -0.64601038645958
H            2.74545183673288        2.10629960314213       -0.09889570597901
H            3.57349965063318       -1.65351025266516        0.03760122101455
H           -1.67627715594929        3.07965838369444       -0.02324477655432
H           -2.83825147835429        2.09045954137381       -0.95298012937584
H           -2.89048678493362        2.07238603499640        0.81659667396751
H           -1.17461296504311       -3.19130607556003        0.83658235150145
H           -1.14542829984743       -3.17563681567183       -0.95177350069186
H           -2.56017208797955       -2.55310515408145       -0.07491554500080
H            1.36562565781510       -2.93719405084609       -0.01250908987892
25
 energy: -43.838757035075 gnorm: 0.001021152495 xtb: 6.6.1 (8d0f1dd)
C            3.27482441194808        1.16930714549922        0.06741124122584
N            2.31300130349768        0.11109988708176        0.01638225024522
C            2.60035502152132       -1.23593360425544        0.02320670770737
N            1.41714566692268       -1.93220012572807       -0.00018598181281
C            0.39760434105465       -1.05199011681906       -0.00980987861450
C            0.92140174137754        0.23549412073500        0.00844556692960
C            0.10716514616174        1.39084239229464       -0.00396655929670
O            0.47875372370960        2.56733299875281       -0.00002816428601
N           -1.27568542837211        1.04998950680076       -0.03039033575371
C           -2.23234511791325        2.14534513911070       -0.04934583542171
C           -1.82124894853865       -0.19731391024120       -0.04692218017541
O           -3.01945487802280       -0.38714217032579       -0.06989819385747
N           -0.94060190324862       -1.29788301431542       -0.03625475971032
C           -1.47456020933855       -2.64077577170660       -0.05694634509895
H            3.76045058597069        1.20244908614991        1.04071048551071
H            4.09009802799728        1.03441665137384       -0.64661510494141
H            2.74635523224448        2.10702634216811       -0.09548115643235
H            3.57373408494885       -1.65405486118021        0.03677637597241
H           -1.67679846372125        3.08010373043594       -0.02476079200977
H           -2.83869934958170        2.09033716655748       -0.95344155621516
H           -2.89104779632061        2.07382802484396        0.81584761921584
H           -1.17498572453012       -3.19208476439684        0.83751202612641
H           -1.14593187094215       -3.17704926029139       -0.95022485469941
H           -2.56043776836303       -2.55471859180951       -0.07372393723831
H            1.36546022376765       -2.93701994901915       -0.01361655652834
25
 energy: -43.838739892901 gnorm: 0.002574279099 xtb: 6.6.1 (8d0f1dd)
C            3.27580162719054        1.16942510673619        0.06544969645373
N            2.31402269167840        0.11039648853785        0.01602910106296
C            2.60065543377731       -1.23660053302934        0.02550468646670
N            1.41718489186557       -1.93233361727077        0.00090523277457
C            0.39757451643927       -1.05188647169111       -0.00930766022965
C            0.92218634259242        0.23538179121006        0.00837402660939
C            0.10796535460774        1.39117930179530       -0.00356372792281
O            0.48020380755418        2.56734456922220        0.00007220829941
N           -1.27531600191054        1.05063572834565       -0.02993861514073
C           -2.23285278474977        2.14566316426340       -0.04828201584749
C           -1.82144359607141       -0.19676692203808       -0.04690333058147
O           -3.01970709067699       -0.38619926941627       -0.07186790686171
N           -0.94067430124763       -1.29767859363706       -0.03604257482816
C           -1.47471810322992       -2.64095926569690       -0.05801779921256
H            3.76047257078472        1.20327872938951        1.03947264329370
H            4.09054047001664        1.03596545313999       -0.64971429934273
H            2.74693710751208        2.10665717960462       -0.09868764473291
H            3.57395709407854       -1.65580280774448        0.04247249856807
H           -1.67987117159432        3.08188520412003       -0.02333713936574
H           -2.83992032149502        2.09056912332440       -0.95187787172225
H           -2.89129417040975        2.07285011432675        0.81695625080350
H           -1.17572261642085       -3.19362111908647        0.83580284642463
H           -1.14514260884219       -3.17647022118244       -0.95133266298881
H           -2.56075627770621       -2.55636686148379       -0.07565638346597
H            1.36446918848658       -2.93714022002381       -0.01182947767263
25
 energy: -43.828238916617 gnorm: 0.097212969792 xtb: 6.6.1 (8d0f1dd)
C            3.32308879398242        1.16662489532296        0.02819775016806
N            2.30870186268234        0.10781798062884        0.01169407485259
C            2.58535969397586       -1.21683161067794        0.01178878734923
N            1.41771787283761       -1.92912413875844       -0.00063324680442
C            0.38220852007859       -1.03983540937355       -0.01102181562841
C            0.91870384110659        0.23918736768966        0.00428553948377
C            0.07438330367393        1.39935672064375       -0.00134003626512
O            0.46693630992330        2.56713211942570        0.00377183722471
N           -1.27170576111738        1.05417560310397       -0.02982543502591
C           -2.24331257556450        2.14448615456496       -0.04851587527096
C           -1.83283820517711       -0.20281790637872       -0.04712310082839
O           -3.01895658945871       -0.38522180595460       -0.07002622961116
N           -0.93910063097294       -1.30063809262169       -0.03616620504146
C           -1.48052891003054       -2.64457677629133       -0.05558298692638
H            3.81797847521625        1.17635518805990        0.96300732248419
H            4.21437770789293        1.04123842555562       -0.57321412132633
H            2.78641598506985        2.11011719534042       -0.09696786967034
H            3.55491948845270       -1.64448824591684        0.03411054328252
H           -1.69920806294595        3.07949595574461       -0.02310791481669
H           -2.85230017069896        2.08571544668432       -0.95209836364896
H           -2.90359737871341        2.06815735548524        0.81633526927746
H           -1.18390674060379       -3.19064860389827        0.84263210972235
H           -1.15037163093245       -3.18023897727305       -0.94495232790163
H           -2.56638520384610       -2.56034694427055       -0.07393465796620
H            1.36330504626925       -2.93710673583226       -0.01325245244970
25
 energy: -43.833544471007 gnorm: 0.040832747780 xtb: 6.6.1 (8d0f1dd)
C            3.31022061096319        1.16855663195352        0.06106344883371
N            2.32141855813503        0.11585228798401        0.01176569223760
C            2.60112571600654       -1.22826791973417        0.00780679518158
N            1.41730384844562       -1.92716503279421       -0.00432591809439
C            0.39572047396453       -1.03673633614564       -0.01406034019162
C            0.92920429680215        0.24517708298648       -0.00231253969997
C            0.08994928180583        1.39804678804192       -0.00663123091354
O            0.47100888595866        2.57444133854782        0.00248765062083
N           -1.27421708741034        1.04983687528292       -0.03079898839288
C           -2.24142137956856        2.13999948101372       -0.04792874895837
C           -1.83096620161843       -0.20044926394813       -0.04713183034768
O           -3.02707363345452       -0.38841659365753       -0.06960152610597
N           -0.93746114096178       -1.29437039206116       -0.03634201094017
C           -1.47468450698377       -2.63732945808828       -0.05444602897034
H            3.79330793510107        1.18869105430589        1.03560754594682
H            4.13779416855720        1.01622801661163       -0.64374057671653
H            2.78517213945188        2.10624445972593       -0.11095050923946
H            3.57063397986613       -1.66259479139047        0.03500447499817
H           -1.68528795057238        3.07252320941198       -0.02316419335304
H           -2.84924448755752        2.08362549799842       -0.95170072626562
H           -2.90042551540674        2.06618072481764        0.81763441660508
H           -1.17745688813406       -3.18603975728752        0.84231025409800
H           -1.14415813324998       -3.17560261503484       -0.94466371158699
H           -2.56058066735639       -2.54937157876320       -0.07344061701531
H            1.35200273831643       -2.93107454877404       -0.01438018706707
25
 energy: -43.834886837265 gnorm: 0.020169074682 xtb: 6.6.1 (8d0f1dd)
C            3.32269457960718        1.16563284929425        0.04913068118647
N            2.32461914610902        0.12349245877603       -0.00692102497473
C            2.60010384263001       -1.22726316966159        0.00410327149757
N            1.41338721286860       -1.92440523153021       -0.00063679391511
C            0.39513368496721       -1.03768699668509       -0.01167627868643
C            0.92726276515810        0.24787117306566       -0.00471994513562
C            0.09018596091328        1.39601527318791       -0.00244622041926
O            0.46211279561055        2.57526699949243        0.00448279753905
N           -1.28268902886344        1.04776610135141       -0.02783736806890
C           -2.24825714553966        2.13963507707321       -0.04803508498484
C           -1.83293894857239       -0.20104507759496       -0.04558285648474
O           -3.03093748158022       -0.39143620019611       -0.07067743968990
N           -0.94299791179442       -1.29568772152451       -0.03354442029678
C           -1.47940572737665       -2.64019599635378       -0.05375352141895
H            3.80380621511279        1.17638974019882        1.02442371944979
H            4.17779026774748        1.02954709105387       -0.61895786902933
H            2.81272161627618        2.11258006018862       -0.11005499184728
H            3.56845060874108       -1.65769475899031        0.03390315993071
H           -1.69675096153568        3.07636305782033       -0.02264607067639
H           -2.85468513552933        2.08404550614869       -0.95239500933204
H           -2.90888975716859        2.06704537083420        0.81577281104447
H           -1.18464821164631       -3.19222921046220        0.84194050465897
H           -1.14977684308976       -3.18039113292517       -0.94420966272465
H           -2.56604341199270       -2.55727755819517       -0.07423755634410
H            1.35163691004747       -2.92835254336365       -0.00736423661516
25
 energy: -43.834933720260 gnorm: 0.013662120133 xtb: 6.6.1 (8d0f1dd)
C            3.30599593782008        1.16619225242950        0.04205623541120
N            2.31915055541577        0.12009734013051       -0.00171496727082
C            2.59632671963126       -1.23208595041428        0.01458362516218
N            1.41122813782046       -1.92986761781509        0.00116839480578
C            0.39422880481807       -1.04560192759506       -0.00710413371384
C            0.92218260587316        0.24185270616048        0.00532026601804
C            0.09743700446128        1.39133079557744       -0.00140164131795
O            0.46711484012994        2.56964835231810        0.00392809991131
N           -1.28144130977843        1.04727664896921       -0.02957363748306
C           -2.23914739108224        2.14361972908005       -0.04857674518708
C           -1.82824194462282       -0.19952260335375       -0.04753229417151
O           -3.02643170683290       -0.38839538919468       -0.07275917324423
N           -0.94525834621347       -1.29775838825543       -0.03462616554663
C           -1.47870549405382       -2.64149786710285       -0.05522133246928
H            3.80475492552242        1.18830647725359        1.00332415317185
H            4.17054609578405        1.04459127181189       -0.61457261599634
H            2.77927151271383        2.10682057990384       -0.10320966576741
H            3.56542632197783       -1.65491738053746        0.03995870846081
H           -1.68375306067000        3.07849325360671       -0.02389445135732
H           -2.84672503307727        2.09015388274419       -0.95199362408680
H           -2.89616410065419        2.07259851259922        0.81770099139846
H           -1.18082044202451       -3.19003776733274        0.84165047847596
H           -1.14683930308930       -3.18014224256102       -0.94618862687004
H           -2.56519159642785       -2.55829160210509       -0.07510956634542
H            1.35694130765843       -2.93487790531456       -0.01815171732503
25
 energy: -43.835253283815 gnorm: 0.006939106874 xtb: 6.6.1 (8d0f1dd)
C            3.31165140923194        1.16097414194822        0.04968066002308
N            2.32017620771465        0.12175599999342        0.00036195126883
C            2.59632345243553       -1.23006674376327        0.01129428089297
N            1.41160065415154       -1.92571892384407       -0.00127103539509
C            0.39543493998977       -1.04132291994534       -0.01123682079339
C            0.92248176991091        0.24682968615861        0.00196667376743
C            0.09727327713576        1.39602461559471       -0.00607752880333
O            0.46355801663313        2.57497834465415        0.00131958256862
N           -1.28321345244912        1.04948306434243       -0.03129395072201
C           -2.24669764066218        2.13975161904479       -0.04844859797826
C           -1.82729063645338       -0.19788199189032       -0.04765528803927
O           -3.02505363143417       -0.38944982054959       -0.06895528334542
N           -0.94330259001254       -1.29393939236851       -0.03649881091415
C           -1.47620873728512       -2.63742272234106       -0.05388576005358
H            3.80742755762199        1.18083219048201        1.01384688641284
H            4.16991032828711        1.02150478137557       -0.61428864017843
H            2.79525864967631        2.10682629716095       -0.10479990070110
H            3.56585739896205       -1.65349795709316        0.03242151028893
H           -1.69583755101395        3.07656551629364       -0.02320433113826
H           -2.85422898104218        2.08242692948335       -0.95181461371735