25
 energy: -42.471323443199 xtb: 6.6.1 (8d0f1dd)
C            3.19525737639343        1.14033547431516       -0.05165920192822
N            2.27922718579090        0.16981658855274       -0.09200324066186
C            2.52691350229051       -1.15203756489206       -0.02459923152392
N            1.35155143982801       -1.86835350605372       -0.00547059451162
C            0.33537612618122       -0.99364459440208       -0.04495659580704
C            0.86746922235178        0.29581686395353       -0.09618861560319
C           -0.00111625870023        1.43225366280844       -0.02627400583601
O            0.30104788882630        2.60507802720976        0.03665754690107
N           -1.36949179791051        1.04227704837215       -0.02915999671933
C           -2.36095369090122        2.10826410885085       -0.04430171843067
C           -1.90114633126894       -0.22049373577648       -0.04784489142880
O           -3.09207686637112       -0.43279578605986       -0.07098532871567
N           -0.99445367576709       -1.27933577779177       -0.03264418113069
C           -1.50860520619487       -2.63645881832041       -0.01977033212797
H            4.07970209382755        0.89955302706330        0.52681149364301
H            5.27200787939727        1.06683880202486       -0.28168456303891
H            2.83119517817378        2.15089684064211       -0.05325834033289
H            3.50079179764109       -1.58509583613111        0.01265563302726
H           -1.83199410791826        3.05581001928068       -0.01798301949105
H           -2.97043840106803        2.03853340542315       -0.94676009687743
H           -3.02085374261357        2.01986353884733        0.81836317843568
H           -1.22534861643204       -3.15642999227433        0.89718090992634
H           -1.15713331295209       -3.19672429516572       -0.88782929984570
H           -2.59819188917136       -2.57376744615774       -0.06221396616207
H            1.30120604618665       -2.87405444961147       -0.00406628459939
