      -----------------------------------------------------------      
     |                   =====================                   |     
     |                           x T B                           |     
     |                   =====================                   |     
     |                         S. Grimme                         |     
     |          Mulliken Center for Theoretical Chemistry        |     
     |                    University of Bonn                     |     
      -----------------------------------------------------------      

   * xtb version 6.6.1 (8d0f1dd) compiled by 'conda@1efc2f54142f' on 2023-08-01

   xtb is free software: you can redistribute it and/or modify it under
   the terms of the GNU Lesser General Public License as published by
   the Free Software Foundation, either version 3 of the License, or
   (at your option) any later version.
   
   xtb is distributed in the hope that it will be useful,
   but WITHOUT ANY WARRANTY; without even the implied warranty of
   MERCHANTABILITY or FITNESS FOR A PARTICULAR PURPOSE.  See the
   GNU Lesser General Public License for more details.
   
   Cite this work as:
   * C. Bannwarth, E. Caldeweyher, S. Ehlert, A. Hansen, P. Pracht,
     J. Seibert, S. Spicher, S. Grimme, WIREs Comput. Mol. Sci., 2020, 11,
     e01493. DOI: 10.1002/wcms.1493
   
   for GFN2-xTB:
   * C. Bannwarth, S. Ehlert and S. Grimme., J. Chem. Theory Comput., 2019,
     15, 1652-1671. DOI: 10.1021/acs.jctc.8b01176
   for GFN1-xTB:
   * S. Grimme, C. Bannwarth, P. Shushkov, J. Chem. Theory Comput., 2017,
     13, 1989-2009. DOI: 10.1021/acs.jctc.7b00118
   for GFN0-xTB:
   * P. Pracht, E. Caldeweyher, S. Ehlert, S. Grimme, ChemRxiv, 2019, preprint.
     DOI: 10.26434/chemrxiv.8326202.v1
   for GFN-FF:
   * S. Spicher and S. Grimme, Angew. Chem. Int. Ed., 2020, 59, 15665-15673.
     DOI: 10.1002/anie.202004239
   
   for ALPB and GBSA implicit solvation:
   * S. Ehlert, M. Stahn, S. Spicher, S. Grimme, J. Chem. Theory Comput.,
     2021, 17, 4250-4261. DOI: 10.1021/acs.jctc.1c00471
   
   for DFT-D4:
   * E. Caldeweyher, C. Bannwarth and S. Grimme, J. Chem. Phys., 2017,
     147, 034112. DOI: 10.1063/1.4993215
   * E. Caldeweyher, S. Ehlert, A. Hansen, H. Neugebauer, S. Spicher,
     C. Bannwarth and S. Grimme, J. Chem. Phys., 2019, 150, 154122.
     DOI: 10.1063/1.5090222
   * E. Caldeweyher, J.-M. Mewes, S. Ehlert and S. Grimme, Phys. Chem. Chem. Phys.
     2020, 22, 8499-8512. DOI: 10.1039/D0CP00502A
   
   for sTDA-xTB:
   * S. Grimme and C. Bannwarth, J. Chem. Phys., 2016, 145, 054103.
     DOI: 10.1063/1.4959605
   
   in the mass-spec context:
   * V. Asgeirsson, C. Bauer and S. Grimme, Chem. Sci., 2017, 8, 4879.
     DOI: 10.1039/c7sc00601b
   * J. Koopman and S. Grimme, ACS Omega 2019, 4, 12, 15120-15133.
     DOI: 10.1021/acsomega.9b02011
   
   for metadynamics refer to:
   * S. Grimme, J. Chem. Theory Comput., 2019, 155, 2847-2862
     DOI: 10.1021/acs.jctc.9b00143
   
   for SPH calculations refer to:
   * S. Spicher and S. Grimme, J. Chem. Theory Comput., 2021, 17, 1701-1714
     DOI: 10.1021/acs.jctc.0c01306
   
   with help from (in alphabetical order)
   P. Atkinson, C. Bannwarth, F. Bohle, G. Brandenburg, E. Caldeweyher
   M. Checinski, S. Dohm, S. Ehlert, S. Ehrlich, I. Gerasimov, C. Hölzer
   A. Katbashev, J. Koopman, C. Lavigne, S. Lehtola, F. März, M. Müller,
   F. Musil, H. Neugebauer, J. Pisarek, C. Plett, P. Pracht, F. Pultar,
   J. Seibert, P. Shushkov, S. Spicher, M. Stahn, M. Steiner, T. Strunk,
   J. Stückrath, T. Rose, and J. Unsleber
   
 * started run on 2024/04/06 at 11:14:43.297     

           -------------------------------------------------
          |                Calculation Setup                |
           -------------------------------------------------

          program call               : xtb xtbopt.xyz --opt crude --input .xc2 --gfn2
          hostname                   : n-62-30-23
          coordinate file            : xtbopt.xyz
          omp threads                :                     1

   ID    Z sym.   atoms
    1    7 N      1, 17
    2    6 C      2-6, 8, 9, 11-16, 18-23, 25, 26, 28-33
    3    8 O      7, 10, 24, 27
    4    1 H      34-72

molecular fragmentation (1/2 indicates fragments):
111111111111111111111111111111111111111111111111111111111121111111111111
# atoms in fragment 1/2:    71     1
 fragment masses (1/2) :      454.60        1.01
CMA distance (Bohr)    :   5.969
constraining FC (au)   :  0.0500
########################################################################
[WARNING] Please study the warnings concerning your input carefully
-1- readin_getIntValue: could not parse ''
########################################################################

           -------------------------------------------------
          |                 G F N 2 - x T B                 |
           -------------------------------------------------

        Reference                      10.1021/acs.jctc.8b01176
      * Hamiltonian:
        H0-scaling (s, p, d)           1.850000    2.230000    2.230000
        zeta-weighting                 0.500000
      * Dispersion:
        s8                             2.700000
        a1                             0.520000
        a2                             5.000000
        s9                             5.000000
      * Repulsion:
        kExp                           1.500000    1.000000
        rExp                           1.000000
      * Coulomb:
        alpha                          2.000000
        third order                    shell-resolved
        anisotropic                    true
        a3                             3.000000
        a5                             4.000000
        cn-shift                       1.200000
        cn-exp                         4.000000
        max-rad                        5.000000

q/qsh data taken from xtbrestart
CAMM data taken from xtbrestart

          ...................................................
          :                      SETUP                      :
          :.................................................:
          :  # basis functions                 171          :
          :  # atomic orbitals                 171          :
          :  # shells                          105          :
          :  # electrons                       180          :
          :  max. iterations                   250          :
          :  Hamiltonian                  GFN2-xTB          :
          :  restarted?                       true          :
          :  GBSA solvation                  false          :
          :  PC potential                    false          :
          :  electronic temp.         5000.0000000     K    :
          :  accuracy                    1.0000000          :
          :  -> integral cutoff          0.2500000E+02      :
          :  -> integral neglect         0.1000000E-07      :
          :  -> SCF convergence          0.1000000E-05 Eh   :
          :  -> wf. convergence          0.1000000E-03 e    :
          :  Broyden damping             0.4000000          :
          ...................................................

 iter      E             dE          RMSdq      gap      omega  full diag
   1   -100.6695257 -0.100670E+03  0.377E-05    1.30       0.0  T
   2   -100.6695257  0.813145E-10  0.395E-05    1.30     298.6  T
   3   -100.6695257 -0.113616E-09  0.262E-05    1.30     449.5  T

   *** convergence criteria satisfied after 3 iterations ***

         #    Occupation            Energy/Eh            Energy/eV
      -------------------------------------------------------------
         1        2.0000           -0.8557053             -23.2849
       ...           ...                  ...                  ...
        84        1.9912           -0.5146035             -14.0031
        85        1.9905           -0.5133648             -13.9694
        86        1.9697           -0.4947729             -13.4635
        87        1.9365           -0.4827880             -13.1373
        88        1.9040           -0.4759721             -12.9519
        89        1.7951           -0.4630372             -12.5999
        90        1.7361           -0.4585086             -12.4767 (HOMO)
        91        0.4844           -0.4106153             -11.1734 (LUMO)
        92        0.2148           -0.3951469             -10.7525
        93        0.0093           -0.3437251              -9.3532
        94        0.0026           -0.3234750              -8.8022
        95        0.0021           -0.3204268              -8.7193
       ...           ...                  ...                  ...
       171                          0.5669185              15.4266
      -------------------------------------------------------------
                  HL-Gap            0.0478934 Eh            1.3032 eV
             Fermi-level           -0.4286766 Eh          -11.6649 eV

 SCC (total)                   0 d,  0 h,  0 min,  0.119 sec
 SCC setup                      ...        0 min,  0.001 sec (  0.819%)
 Dispersion                     ...        0 min,  0.002 sec (  1.452%)
 classical contributions        ...        0 min,  0.000 sec (  0.362%)
 integral evaluation            ...        0 min,  0.018 sec ( 15.277%)
 iterations                     ...        0 min,  0.028 sec ( 23.391%)
 molecular gradient             ...        0 min,  0.069 sec ( 58.134%)
 printout                       ...        0 min,  0.001 sec (  0.554%)

         :::::::::::::::::::::::::::::::::::::::::::::::::::::
         ::                     SUMMARY                     ::
         :::::::::::::::::::::::::::::::::::::::::::::::::::::
         :: total energy             -99.287770420218 Eh    ::
         :: gradient norm              0.002189930937 Eh/a0 ::
         :: HOMO-LUMO gap              1.303244486685 eV    ::
         ::.................................................::
         :: SCC energy              -100.669525716427 Eh    ::
         :: -> isotropic ES            0.137550838983 Eh    ::
         :: -> anisotropic ES         -0.009375914330 Eh    ::
         :: -> anisotropic XC          0.047317617866 Eh    ::
         :: -> dispersion             -0.096840397328 Eh    ::
         :: repulsion energy           1.380502310800 Eh    ::
         :: add. restraining           0.000000000000 Eh    ::
         :: total charge               1.000000000030 e     ::
         :::::::::::::::::::::::::::::::::::::::::::::::::::::

      ----------------------------------------------------------- 
     |                   =====================                   |
     |                        A N C O P T                        |
     |                   =====================                   |
     |               Approximate Normal Coordinate               |
     |                Rational Function Optimizer                |
      ----------------------------------------------------------- 

          ...................................................
          :                      SETUP                      :
          :.................................................:
          :   optimization level             crude          :
          :   max. optcycles                   200          :
          :   ANC micro-cycles                  20          :
          :   degrees of freedom               210          :
          :.................................................:
          :   RF solver                   davidson          :
          :   write xtbopt.log                true          :
          :   linear?                        false          :
          :   energy convergence         0.5000000E-03 Eh   :
          :   grad. convergence          0.1000000E-01 Eh/α :
          :   maxmium RF displ.          1.0000000          :
          :   Hlow (freq-cutoff)         0.1000000E-01      :
          :   Hmax (freq-cutoff)         5.0000000          :
          :   S6 in model hess.         20.0000000          :
          ...................................................

generating ANC from model Hessian ...
Using Lindh-Hessian (1995)
 Shifting diagonal of input Hessian by    1.8079952757050217E-002
 Lowest  eigenvalues of input Hessian
    0.010000    0.012881    0.016256    0.000000    0.000000    0.000000
    0.000000    0.000000    0.000000    0.018118    0.018124    0.018206
    0.018346    0.018382    0.018632    0.018681    0.018831    0.018956
 Highest eigenvalues
    2.050445    2.094993    2.118776    2.126226    2.192374    2.207028


........................................................................
.............................. CYCLE    1 ..............................
........................................................................

 iter      E             dE          RMSdq      gap      omega  full diag
   1   -100.6695257 -0.100670E+03  0.106E-05    1.30       0.0  T
   2   -100.6695257  0.504485E-11  0.111E-05    1.30    1061.4  T
   3   -100.6695257 -0.677858E-11  0.573E-06    1.30    2055.4  T
     SCC iter.                  ...        0 min,  0.026 sec
     gradient                   ...        0 min,  0.069 sec
 * total energy  :   -99.2877704 Eh     change       -0.5336176E-10 Eh
   gradient norm :     0.0021908 Eh/α   predicted     0.0000000E+00 (-100.00%)
   displ. norm   :     0.0616014 α      lambda       -0.6641490E-04
   maximum displ.:     0.0353154 α      in ANC's #2, #3, #1, ...

   *** GEOMETRY OPTIMIZATION CONVERGED AFTER 1 ITERATIONS ***

------------------------------------------------------------------------
 total energy gain   :        -0.0000000 Eh       -0.0000 kcal/mol
 total RMSD          :         0.0000002 a0        0.0000 Å
 total power (kW/mol):        -0.0000001 (step)   -0.0000 (real)
------------------------------------------------------------------------

 ANCopt (total)                0 d,  0 h,  0 min,  0.181 sec
 optimizer setup                ...        0 min,  0.000 sec (  0.166%)
 model hessian                  ...        0 min,  0.054 sec ( 29.927%)
 ANC generation                 ...        0 min,  0.006 sec (  3.587%)
 coordinate transformation      ...        0 min,  0.000 sec (  0.027%)
 single point calculation       ...        0 min,  0.117 sec ( 64.688%)
 optimization log               ...        0 min,  0.002 sec (  1.133%)
 hessian update                 ...        0 min,  0.000 sec (  0.001%)
 rational function              ...        0 min,  0.000 sec (  0.108%)

================
 final structure:
================
72
 xtb: 6.6.1 (8d0f1dd)
N           -1.81337941518111        2.78236697346755        2.14651245984417
C           -1.83675682248145        1.97593499970827        1.19393597585080
C           -3.02445211403906        1.75984180244808        0.29432578236376
C           -3.46758508311114        0.30697736072946        0.39302691540339
C           -4.38492331130412       -0.20918325976044       -0.52374448237273
C           -4.84353383446914       -1.51404731141418       -0.43246630244656
O           -5.73023104087023       -2.08906136576906       -1.26710359565401
C           -6.30180191143048       -1.33043611123197       -2.30643477580908
C           -4.36756717744287       -2.35344849663809        0.61434932570302
O           -4.86710168627013       -3.60048180197185        0.62669824803714
C           -4.48788282407734       -4.48644386743437        1.65560192900265
C           -3.45673110667064       -1.83192777444628        1.52200418134059
C           -3.01819182618261       -0.52089731863384        1.41358963079781
C           -2.54305405515860        2.07968778887866       -1.14455259746407
C           -1.53240454465432        1.07100151918500       -1.70892005407532
C           -0.15913036035972        1.27716639695311       -1.19646376060215
N            0.72056771688098        0.34514657629962       -0.95557086827623
C            2.07392042067563        0.67538592375963       -0.58048865159983
C            3.05888226196432        0.44752588816333       -1.74506726234435
C            4.45774283193496        0.33781269045545       -1.21077507797403
C            5.42171627074412        1.31898328226503       -1.40220978737681
C            6.69508412465079        1.18324264268033       -0.87169920643800
C            7.03401644816151        0.07646165932235       -0.09792912929690
O            8.22095434586927       -0.14270813804260        0.48762747046869
C            9.26225556698154        0.79633476716162        0.31841524414670
C            6.03551794778435       -0.90753721574970        0.12580314754146
O            6.38549215188335       -1.95433371707941        0.92773859743715
C            5.52581846316252       -2.73907039388359        1.48783136301358
C            4.78710044803048       -0.78365973563091       -0.46433116093695
C            0.41417449776416       -1.06194155767839       -1.01305522754715
C           -4.24449604547500        2.66224561906990        0.64967690124751
C           -4.78287757003353        2.35183465810862        2.04413572276711
C           -3.94770696278599        4.15525689347886        0.53578642246629
H           -4.76065487209958        0.42160067186720       -1.31233901588723
H           -6.85514007727457       -0.46999357573901       -1.91828771091904
H           -6.99199570350211       -2.00281229972029       -2.81229162912550
H           -5.54386952275051       -0.98927981917335       -3.01895919951696
H           -4.77658588429912       -4.10329907636312        2.63875528802806
H           -5.02528350053978       -5.41157412847585        1.45638984692419
H           -3.41141753306239       -4.68109268222872        1.64046361282813
H           -3.08603894722557       -2.43907275720873        2.33132656539224
H           -2.33232331301381       -0.14648072580188        2.15705562254481
H           -3.41143629044894        2.10514685643740       -1.80177346355382
H           -2.09761623529502        3.07478598691231       -1.15304151495820
H           -1.88489982571140        0.05405307861749       -1.53640303672560
H           -1.49006143928126        1.21875416456248       -2.79564912818082
H           -0.96866518637272        1.36460016787980        0.89235919611100
H            0.17765494716146        2.30182899686530       -1.10485720754424
H            2.35658627160954        0.00994835136983        0.24379558428863
H            2.12931195008553        1.71131661674086       -0.24299775634451
H            2.97890046179632        1.25909239463120       -2.46984163423715
H            2.80102549919831       -0.49088957990968       -2.23827344537388
H            5.18783995033433        2.19878617018085       -1.98231402644822
H            7.42326560743440        1.95603027749393       -1.05542019580495
H            8.99092537809912        1.77093023070081        0.73322303164935
H            9.53266159461759        0.90572725015368       -0.73519255477243
H           10.10978417176243        0.39237724259901        0.86878665581110
H            5.95548680217356       -3.53289527587567        2.07563309301500
H            2.49455395038811       -1.76391063123432        0.91416093667514
H            4.45395159253516       -2.60006997906982        1.42171479866499
H            4.04675817800221       -1.55235372467805       -0.31864007669341
H            0.48237086263297       -1.44047874604136       -2.03346457882424
H           -0.58650660919634       -1.25727907139009       -0.63040506808388
H            1.12984904666172       -1.59840129971827       -0.38298964873638
H           -5.02944437575814        2.41611377533883       -0.07516738649125
H           -4.04482200153217        2.61443891020665        2.79567794508947
H           -5.03213005233672        1.29835075630976        2.14557163944717
H           -5.68210262319578        2.93478451737153        2.22528539950676
H           -3.12898206040701        4.42718021485826        1.19483467649200
H           -3.70484882163921        4.44755060910106       -0.48241121011234
H           -4.82781501079100        4.71637711871146        0.83884087024376
H           -0.95520658623728        2.86621915949792        2.68186219105976

 Bond Distances (Angstroems)
 ---------------------------
N1-C2=1.2483         N1-H72=1.0149        C2-N1=1.2483         C2-C3=1.5055         C2-H47=1.1037        C3-C2=1.5055         
C3-C4=1.5221         C3-C14=1.5506        C3-C31=1.5586        C4-C3=1.5221         C4-C5=1.3959         C4-C13=1.3888        
C5-C4=1.3959         C5-C6=1.3861         C5-H34=1.0775        C6-C5=1.3861         C6-O7=1.3467         C6-C9=1.4237         
O7-C6=1.3467         O7-C8=1.4080         C8-O7=1.4080         C8-H35=1.0942        C8-H36=1.0883        C8-H37=1.0948        
C9-C6=1.4237         C9-O10=1.3434        C9-C12=1.3876        O10-C9=1.3434        O10-C11=1.4097       C11-O10=1.4097       
C11-H38=1.0940       C11-H39=1.0883       C11-H40=1.0940       C12-C9=1.3876        C12-C13=1.3867       C12-H41=1.0775       
C13-C4=1.3888        C13-C12=1.3867       C13-H42=1.0786       C14-C3=1.5506        C14-C15=1.5354       C14-H43=1.0893       
C14-H44=1.0903       C15-C14=1.5354       C15-C16=1.4802       C15-H45=1.0900       C15-H46=1.0975       C16-C15=1.4802       
C16-N17=1.3041       C16-H48=1.0825       N17-C16=1.3041       N17-C18=1.4427       N17-C30=1.4412       C18-N17=1.4427       
C18-C19=1.5422       C18-H49=1.0964       C18-H50=1.0909       C19-C18=1.5422       C19-C20=1.5014       C19-H51=1.0910       
C19-H52=1.0910       C20-C19=1.5014       C20-C21=1.3887       C20-C29=1.3869       C21-C20=1.3887       C21-C22=1.3861       
C21-H53=1.0795       C22-C21=1.3861       C22-C23=1.3923       C22-H54=1.0776       C23-C22=1.3923       C23-O24=1.3415       
C23-C26=1.4196       O24-C23=1.3415       O24-C25=1.4124       C25-O24=1.4124       C25-H55=1.0934       C25-H56=1.0932       
C25-H57=1.0883       C26-C23=1.4196       C26-O27=1.3643       C26-C29=1.3864       O27-C26=1.3643       O27-C28=1.2917       
C28-O27=1.2917       C28-H58=1.0772       C28-H60=1.0829       C29-C20=1.3869       C29-C26=1.3864       C29-H61=1.0771       
C30-N17=1.4412       C30-H62=1.0905       C30-H63=1.0890       C30-H64=1.0941       C31-C3=1.5586        C31-C32=1.5267       
C31-C33=1.5265       C31-H65=1.0964       C32-C31=1.5267       C32-H66=1.0856       C32-H67=1.0873       C32-H68=1.0869       
C33-C31=1.5265       C33-H69=1.0856       C33-H70=1.0868       C33-H71=1.0869       H34-C5=1.0775        H35-C8=1.0942        
H36-C8=1.0883        H37-C8=1.0948        H38-C11=1.0940       H39-C11=1.0883       H40-C11=1.0940       H41-C12=1.0775       
H42-C13=1.0786       H43-C14=1.0893       H44-C14=1.0903       H45-C15=1.0900       H46-C15=1.0975       H47-C2=1.1037        
H48-C16=1.0825       H49-C18=1.0964       H50-C18=1.0909       H51-C19=1.0910       H52-C19=1.0910       H53-C21=1.0795       
H54-C22=1.0776       H55-C25=1.0934       H56-C25=1.0932       H57-C25=1.0883       H58-C28=1.0772       H60-C28=1.0829       
H61-C29=1.0771       H62-C30=1.0905       H63-C30=1.0890       H64-C30=1.0941       H65-C31=1.0964       H66-C32=1.0856       
H67-C32=1.0873       H68-C32=1.0869       H69-C33=1.0856       H70-C33=1.0868       H71-C33=1.0869       H72-N1=1.0149        
 C  H  Rav=1.0883 sigma=0.0065  Rmin=1.0771  Rmax=1.1037    37
 C  C  Rav=1.4535 sigma=0.0676  Rmin=1.3861  Rmax=1.5586    22
 N  H  Rav=1.0149 sigma=0.0000  Rmin=1.0149  Rmax=1.0149     1
 N  C  Rav=1.3591 sigma=0.0852  Rmin=1.2483  Rmax=1.4427     4
 O  C  Rav=1.3647 sigma=0.0400  Rmin=1.2917  Rmax=1.4124     8

 selected bond angles (degree)
 --------------------
H72-N1-C2=118.15               C3-C2-N1=124.30                H47-C2-N1=123.48               H47-C2-C3=112.19               
C4-C3-C2=109.14                C14-C3-C2=106.26               C14-C3-C4=110.33               C31-C3-C2=113.47               
C31-C3-C4=108.06               C31-C3-C14=109.58              C5-C4-C3=120.11                C13-C4-C3=121.49               
C13-C4-C5=118.35               C6-C5-C4=121.49                H34-C5-C4=119.56               H34-C5-C6=118.94               
O7-C6-C5=125.38                C9-C6-C5=119.53                C9-C6-O7=115.09                C8-O7-C6=119.65                
H35-C8-O7=111.54               H36-C8-O7=105.53               H36-C8-H35=109.27              H37-C8-O7=111.55               
H37-C8-H35=109.63              H37-C8-H36=109.21              O10-C9-C6=115.45               C12-C9-C6=118.61               
C12-C9-O10=125.94              C11-O10-C9=119.34              

 selected dihedral angles (degree)
 ---------------------------------
C3-C2-N1-H72=181.20           H47-C2-N1-H72=358.80          C4-C3-C2-N1=240.20            C4-C3-C2-H47= 62.36           
C14-C3-C2-N1=121.24           C14-C3-C2-H47=303.39          C31-C3-C2-N1=  0.76           C31-C3-C2-H47=182.91          
C5-C4-C3-C2=191.96            C5-C4-C3-C14=308.36           C5-C4-C3-C31= 68.15           C13-C4-C3-C2= 14.44           
C13-C4-C3-C14=130.84          C13-C4-C3-C31=250.62          C6-C5-C4-C3=182.29            C6-C5-C4-C13=359.89           
H34-C5-C4-C3=  1.25           H34-C5-C4-C13=178.86          O7-C6-C5-C4=179.65            O7-C6-C5-H34=  0.68           
C9-C6-C5-C4=359.73            C9-C6-C5-H34=180.75           C8-O7-C6-C5=357.67            C8-O7-C6-C9=177.59            
H35-C8-O7-C6=300.01           H36-C8-O7-C6=181.46           H37-C8-O7-C6= 62.98           O10-C9-C6-C5=179.90           
O10-C9-C6-O7=359.97           C12-C9-C6-C5=  0.32           C12-C9-C6-O7=180.39           C11-O10-C9-C6=182.23          
C11-O10-C9-C12=  1.77         

 CMA Distance (Angstroems)
 ---------------------------
R(CMA):  3.1589
           -------------------------------------------------
          |                Final Singlepoint                |
           -------------------------------------------------

          ...................................................
          :                      SETUP                      :
          :.................................................:
          :  # basis functions                 171          :
          :  # atomic orbitals                 171          :
          :  # shells                          105          :
          :  # electrons                       180          :
          :  max. iterations                   250          :
          :  Hamiltonian                  GFN2-xTB          :
          :  restarted?                      false          :
          :  GBSA solvation                  false          :
          :  PC potential                    false          :
          :  electronic temp.         5000.0000000     K    :
          :  accuracy                    1.0000000          :
          :  -> integral cutoff          0.2500000E+02      :
          :  -> integral neglect         0.1000000E-07      :
          :  -> SCF convergence          0.1000000E-05 Eh   :
          :  -> wf. convergence          0.1000000E-03 e    :
          :  Broyden damping             0.4000000          :
          ...................................................

 iter      E             dE          RMSdq      gap      omega  full diag
   1   -100.6695257 -0.100670E+03  0.779E-06    1.30       0.0  T
   2   -100.6695257  0.293880E-10  0.171E-05    1.30     689.6  T
   3   -100.6695257 -0.340492E-10  0.262E-06    1.30    4499.2  T

   *** convergence criteria satisfied after 3 iterations ***

         #    Occupation            Energy/Eh            Energy/eV
      -------------------------------------------------------------
         1        2.0000           -0.8557050             -23.2849
       ...           ...                  ...                  ...
        84        1.9912           -0.5146036             -14.0031
        85        1.9905           -0.5133647             -13.9694
        86        1.9697           -0.4947730             -13.4635
        87        1.9365           -0.4827879             -13.1373
        88        1.9040           -0.4759722             -12.9519
        89        1.7951           -0.4630373             -12.5999
        90        1.7362           -0.4585086             -12.4767 (HOMO)
        91        0.4844           -0.4106148             -11.1734 (LUMO)
        92        0.2148           -0.3951472             -10.7525
        93        0.0093           -0.3437253              -9.3532
        94        0.0026           -0.3234749              -8.8022
        95        0.0021           -0.3204269              -8.7193
       ...           ...                  ...                  ...
       171                          0.5669184              15.4266
      -------------------------------------------------------------
                  HL-Gap            0.0478938 Eh            1.3033 eV
             Fermi-level           -0.4286765 Eh          -11.6649 eV

 SCC (total)                   0 d,  0 h,  0 min,  0.117 sec
 SCC setup                      ...        0 min,  0.001 sec (  0.745%)
 Dispersion                     ...        0 min,  0.002 sec (  1.360%)
 classical contributions        ...        0 min,  0.000 sec (  0.371%)
 integral evaluation            ...        0 min,  0.018 sec ( 15.452%)
 iterations                     ...        0 min,  0.027 sec ( 22.658%)
 molecular gradient             ...        0 min,  0.069 sec ( 58.870%)
 printout                       ...        0 min,  0.001 sec (  0.531%)

         :::::::::::::::::::::::::::::::::::::::::::::::::::::
         ::                     SUMMARY                     ::
         :::::::::::::::::::::::::::::::::::::::::::::::::::::
         :: total energy             -99.287770420272 Eh    ::
         :: gradient norm              0.002190589374 Eh/a0 ::
         :: HOMO-LUMO gap              1.303257465139 eV    ::
         ::.................................................::
         :: SCC energy              -100.669525716481 Eh    ::
         :: -> isotropic ES            0.137550845390 Eh    ::
         :: -> anisotropic ES         -0.009375797353 Eh    ::
         :: -> anisotropic XC          0.047317629218 Eh    ::
         :: -> dispersion             -0.096840438848 Eh    ::
         :: repulsion energy           1.380502310800 Eh    ::
         :: add. restraining           0.000000000000 Eh    ::
         :: total charge               1.000000000030 e     ::
         :::::::::::::::::::::::::::::::::::::::::::::::::::::

           -------------------------------------------------
          |                Property Printout                |
           -------------------------------------------------

    * Orbital Energies and Occupations

         #    Occupation            Energy/Eh            Energy/eV
      -------------------------------------------------------------
         1        2.0000           -0.8557050             -23.2849
       ...           ...                  ...                  ...
        78        1.9973           -0.5332748             -14.5111
        79        1.9972           -0.5326998             -14.4955
        80        1.9966           -0.5296487             -14.4125
        81        1.9955           -0.5253048             -14.2943
        82        1.9936           -0.5195842             -14.1386
        83        1.9927           -0.5174724             -14.0811
        84        1.9912           -0.5146036             -14.0031
        85        1.9905           -0.5133647             -13.9694
        86        1.9697           -0.4947730             -13.4635
        87        1.9365           -0.4827879             -13.1373
        88        1.9040           -0.4759722             -12.9519
        89        1.7951           -0.4630373             -12.5999
        90        1.7362           -0.4585086             -12.4767 (HOMO)
        91        0.4844           -0.4106148             -11.1734 (LUMO)
        92        0.2148           -0.3951472             -10.7525
        93        0.0093           -0.3437253              -9.3532
        94        0.0026           -0.3234749              -8.8022
        95        0.0021           -0.3204269              -8.7193
        96        0.0021           -0.3199355              -8.7059
        97        0.0018           -0.3175658              -8.6414
        98        0.0000           -0.1998557              -5.4384
        99        0.0000           -0.1950747              -5.3083
       100                         -0.1258701              -3.4251
       101                         -0.0728545              -1.9825
       ...                                ...                  ...
       171                          0.5669184              15.4266
      -------------------------------------------------------------
                  HL-Gap            0.0478938 Eh            1.3033 eV
             Fermi-level           -0.4286765 Eh          -11.6649 eV

     #   Z          covCN         q      C6AA      α(0)
     1   7 N        1.774    -0.261    27.610     7.781
     2   6 C        2.827     0.102    25.730     8.312
     3   6 C        3.907     0.007    20.401     6.420
     4   6 C        2.974     0.003    27.956     8.673
     5   6 C        2.919    -0.079    29.971     8.978
     6   6 C        2.861     0.132    25.102     8.212
     7   8 O        1.706    -0.222    17.680     5.677
     8   6 C        3.644     0.026    20.479     6.505
     9   6 C        2.864     0.134    25.070     8.207
    10   8 O        1.706    -0.217    17.606     5.665
    11   6 C        3.645     0.023    20.517     6.510
    12   6 C        2.913    -0.068    29.686     8.934
    13   6 C        2.921    -0.046    29.144     8.853
    14   6 C        3.812    -0.066    21.763     6.640
    15   6 C        3.803    -0.070    21.835     6.653
    16   6 C        2.848     0.022    27.498     8.594
    17   7 N        2.729     0.059    20.219     6.678
    18   6 C        3.762    -0.029    21.132     6.553
    19   6 C        3.809    -0.066    21.766     6.641
    20   6 C        2.969     0.013    27.721     8.636
    21   6 C        2.921    -0.036    28.904     8.816
    22   6 C        2.915    -0.065    29.617     8.924
    23   6 C        2.861     0.144    24.867     8.174
    24   8 O        1.706    -0.221    17.667     5.675
    25   6 C        3.645     0.021    20.553     6.516
    26   6 C        2.879     0.106    25.654     8.303
    27   8 O        1.709    -0.074    15.465     5.310
    28   6 C        2.742     0.057    26.698     8.460
    29   6 C        2.922    -0.055    29.376     8.888
    30   6 C        3.704    -0.081    22.204     6.737
    31   6 C        3.853    -0.007    20.675     6.467
    32   6 C        3.756    -0.118    22.823     6.812
    33   6 C        3.755    -0.120    22.864     6.818
    34   1 H        0.926     0.053     2.281     2.362
    35   1 H        0.924     0.056     2.244     2.343
    36   1 H        0.925     0.084     1.936     2.176
    37   1 H        0.924     0.050     2.318     2.381
    38   1 H        0.924     0.059     2.205     2.322
    39   1 H        0.925     0.085     1.932     2.174
    40   1 H        0.924     0.058     2.226     2.333
    41   1 H        0.926     0.063     2.168     2.303
    42   1 H        0.926     0.050     2.326     2.385
    43   1 H        0.925     0.062     2.172     2.304
    44   1 H        0.924     0.057     2.230     2.336
    45   1 H        0.925     0.073     2.053     2.240
    46   1 H        0.924     0.088     1.902     2.157
    47   1 H        0.923     0.013     2.835     2.633
    48   1 H        0.925     0.078     1.999     2.211
    49   1 H        0.924     0.133     1.509     1.921
    50   1 H        0.924     0.059     2.214     2.327
    51   1 H        0.924     0.053     2.281     2.362
    52   1 H        0.924     0.069     2.095     2.264
    53   1 H        0.926     0.060     2.196     2.317
    54   1 H        0.926     0.068     2.109     2.271
    55   1 H        0.924     0.060     2.202     2.320
    56   1 H        0.924     0.061     2.191     2.315
    57   1 H        0.925     0.086     1.915     2.164
    58   1 H        0.926     0.111     1.687     2.031
    59   1 H        0.000    -0.684  1419.718    68.896
    60   1 H        0.925     0.126     1.568     1.958
    61   1 H        0.926     0.109     1.708     2.044
    62   1 H        0.924     0.077     2.010     2.217
    63   1 H        0.925     0.073     2.054     2.241
    64   1 H        0.924     0.141     1.454     1.886
    65   1 H        0.924     0.040     2.454     2.450
    66   1 H        0.925     0.069     2.095     2.264
    67   1 H        0.925     0.037     2.489     2.467
    68   1 H        0.925     0.054     2.274     2.358
    69   1 H        0.925     0.065     2.137     2.286
    70   1 H        0.925     0.036     2.498     2.471
    71   1 H        0.925     0.057     2.230     2.335
    72   1 H        0.860     0.163     1.315     1.796

 Mol. C6AA /au·bohr⁶  :      63460.298989
 Mol. C8AA /au·bohr⁸  :    1343286.185862
 Mol. α(0) /au        :        399.644446


Wiberg/Mayer (AO) data.
largest (>0.10) Wiberg bond orders for each atom

 ---------------------------------------------------------------------------
     #   Z sym  total        # sym  WBO       # sym  WBO       # sym  WBO
 ---------------------------------------------------------------------------
     1   7 N    3.031 --     2 C    1.960    72 H    0.939
     2   6 C    3.937 --     1 N    1.960     3 C    0.992    47 H    0.908
     3   6 C    3.971 --     2 C    0.992     4 C    0.972    14 C    0.956
                            31 C    0.942
     4   6 C    3.931 --    13 C    1.400     5 C    1.374     3 C    0.972
     5   6 C    3.954 --     6 C    1.393     4 C    1.374    34 H    0.957
     6   6 C    3.888 --     5 C    1.393     9 C    1.211     7 O    1.108
     7   8 O    2.251 --     6 C    1.108     8 C    0.977
     8   6 C    3.929 --     7 O    0.977    36 H    0.976    37 H    0.972
                            35 H    0.972
     9   6 C    3.884 --    12 C    1.379     6 C    1.211    10 O    1.117
    10   8 O    2.253 --     9 C    1.117    11 C    0.974
    11   6 C    3.924 --    39 H    0.976    10 O    0.974    38 H    0.971
                            40 H    0.971
    12   6 C    3.952 --    13 C    1.417     9 C    1.379    41 H    0.962
    13   6 C    3.939 --    12 C    1.417     4 C    1.400    42 H    0.961
    14   6 C    3.979 --    15 C    0.990    44 H    0.970    43 H    0.967
                             3 C    0.956
    15   6 C    3.986 --    16 C    1.058    14 C    0.990    45 H    0.953
                            46 H    0.922
    16   6 C    3.741 --    17 N    1.528    15 C    1.058    48 H    0.953
    17   7 N    3.603 --    16 C    1.528    30 C    0.993    18 C    0.985
    18   6 C    3.924 --    17 N    0.985    50 H    0.970    19 C    0.964
                            49 H    0.919
    19   6 C    3.979 --    20 C    1.011    51 H    0.975    18 C    0.964
                            52 H    0.962
    20   6 C    3.956 --    29 C    1.403    21 C    1.391    19 C    1.011
    21   6 C    3.931 --    22 C    1.432    20 C    1.391    53 H    0.966
    22   6 C    3.956 --    21 C    1.432    23 C    1.364    54 H    0.962
    23   6 C    3.892 --    22 C    1.364    26 C    1.231    24 O    1.125
    24   8 O    2.275 --    23 C    1.125    25 C    0.969
    25   6 C    3.923 --    57 H    0.976    56 H    0.973    55 H    0.973
                            24 O    0.969
    26   6 C    3.884 --    29 C    1.375    23 C    1.231    27 O    1.030
    27   8 O    2.465 --    28 C    1.355    26 C    1.030
    28   6 C    3.415 --    27 O    1.355    58 H    0.961    60 H    0.944
    29   6 C    3.906 --    20 C    1.403    26 C    1.375    61 H    0.934
    30   6 C    3.919 --    17 N    0.993    63 H    0.965    62 H    0.958
                            64 H    0.933
    31   6 C    3.968 --    32 C    1.008    33 C    1.008    65 H    0.958
                             3 C    0.942
    32   6 C    3.974 --    31 C    1.008    67 H    0.980    68 H    0.980
                            66 H    0.972
    33   6 C    3.976 --    31 C    1.008    70 H    0.982    71 H    0.978
                            69 H    0.973
    34   1 H    0.996 --     5 C    0.957
    35   1 H    0.991 --     8 C    0.972
    36   1 H    0.992 --     8 C    0.976
    37   1 H    0.992 --     8 C    0.972
    38   1 H    0.989 --    11 C    0.971
    39   1 H    0.992 --    11 C    0.976
    40   1 H    0.990 --    11 C    0.971
    41   1 H    0.994 --    12 C    0.962
    42   1 H    0.996 --    13 C    0.961
    43   1 H    0.995 --    14 C    0.967
    44   1 H    0.996 --    14 C    0.970
    45   1 H    0.993 --    15 C    0.953
    46   1 H    0.977 --    15 C    0.922
    47   1 H    0.980 --     2 C    0.908
    48   1 H    0.994 --    16 C    0.953
    49   1 H    0.978 --    18 C    0.919
    50   1 H    0.995 --    18 C    0.970
    51   1 H    0.995 --    19 C    0.975
    52   1 H    0.993 --    19 C    0.962
    53   1 H    0.995 --    21 C    0.966
    54   1 H    0.993 --    22 C    0.962
    55   1 H    0.992 --    25 C    0.973
    56   1 H    0.992 --    25 C    0.973
    57   1 H    0.992 --    25 C    0.976
    58   1 H    0.986 --    28 C    0.961
    59   1 H    0.132
    60   1 H    0.984 --    28 C    0.944
    61   1 H    0.986 --    29 C    0.934
    62   1 H    0.986 --    30 C    0.958
    63   1 H    0.991 --    30 C    0.965
    64   1 H    0.979 --    30 C    0.933
    65   1 H    0.989 --    31 C    0.958
    66   1 H    0.989 --    32 C    0.972
    67   1 H    0.995 --    32 C    0.980
    68   1 H    0.993 --    32 C    0.980
    69   1 H    0.991 --    33 C    0.973
    70   1 H    0.996 --    33 C    0.982
    71   1 H    0.992 --    33 C    0.978
    72   1 H    0.966 --     1 N    0.939
 ---------------------------------------------------------------------------

Topologies differ in total number of bonds
Writing topology from bond orders to xtbtopo.mol

molecular dipole:
                 x           y           z       tot (Debye)
 q only:        1.097       1.154      -1.646
   full:        1.408       1.115      -1.750       6.374
molecular quadrupole (traceless):
                xx          xy          yy          xz          yz          zz
 q only:       88.733      10.836     -38.257       2.141     -10.351     -50.475
  q+dip:       85.607      15.127     -38.155       6.104     -14.173     -47.452
   full:       84.936      14.556     -39.235       3.397     -13.300     -45.701

           -------------------------------------------------
          |                Geometry Summary                 |
           -------------------------------------------------

      molecular mass/u    :      455.6105846
   center of mass at/Å    :        0.0301262      -0.0258932      -0.0026202
  moments of inertia/u·Å² :        0.2475624E+04   0.1103190E+05   0.1215731E+05
rotational constants/cm⁻¹ :        0.6809447E-02   0.1528081E-02   0.1386626E-02

 * 64 selected distances

     #   Z          #   Z                                           value/Å
     1   7 N        2   6 C                                       1.2483114
     4   6 C        5   6 C                                       1.3958515
     5   6 C        6   6 C                                       1.3861190
     6   6 C        7   8 O                                       1.3466599
     7   8 O        8   6 C                                       1.4079827
     6   6 C        9   6 C                                       1.4237141
     9   6 C       10   8 O                                       1.3434209
    10   8 O       11   6 C                                       1.4097443
     9   6 C       12   6 C                                       1.3876037
     4   6 C       13   6 C                                       1.3888410
    12   6 C       13   6 C                                       1.3866765
    14   6 C       15   6 C                                       1.5353734 (max)
    15   6 C       16   6 C                                       1.4802019
    16   6 C       17   7 N                                       1.3040550
    17   7 N       18   6 C                                       1.4426741
    20   6 C       21   6 C                                       1.3887362
    21   6 C       22   6 C                                       1.3861216
    22   6 C       23   6 C                                       1.3923217
    23   6 C       24   8 O                                       1.3415416
    24   8 O       25   6 C                                       1.4123537
    23   6 C       26   6 C                                       1.4196160
    26   6 C       27   8 O                                       1.3643188
    27   8 O       28   6 C                                       1.2917255
    20   6 C       29   6 C                                       1.3868510
    26   6 C       29   6 C                                       1.3864165
    17   7 N       30   6 C                                       1.4412074
    31   6 C       32   6 C                                       1.5266714
    31   6 C       33   6 C                                       1.5264789
     5   6 C       34   1 H                                       1.0774712
     8   6 C       35   1 H                                       1.0941677
     8   6 C       36   1 H                                       1.0882778
     8   6 C       37   1 H                                       1.0947787
    11   6 C       38   1 H                                       1.0939562
    11   6 C       39   1 H                                       1.0882790
    11   6 C       40   1 H                                       1.0940270
    12   6 C       41   1 H                                       1.0775160
    13   6 C       42   1 H                                       1.0785849
    14   6 C       43   1 H                                       1.0893463
    14   6 C       44   1 H                                       1.0902787
    15   6 C       45   1 H                                       1.0900456
    15   6 C       46   1 H                                       1.0975446
    16   6 C       48   1 H                                       1.0824739
    18   6 C       49   1 H                                       1.0964269
    18   6 C       50   1 H                                       1.0909266
    19   6 C       51   1 H                                       1.0910249
    19   6 C       52   1 H                                       1.0910391
    21   6 C       53   1 H                                       1.0794778
    22   6 C       54   1 H                                       1.0775911
    25   6 C       55   1 H                                       1.0933993
    25   6 C       56   1 H                                       1.0932409
    25   6 C       57   1 H                                       1.0882993
    28   6 C       58   1 H                                       1.0771648
    28   6 C       60   1 H                                       1.0828626
    29   6 C       61   1 H                                       1.0771366 (min)
    30   6 C       62   1 H                                       1.0904937
    30   6 C       63   1 H                                       1.0890091
    30   6 C       64   1 H                                       1.0940576
    31   6 C       65   1 H                                       1.0964143
    32   6 C       66   1 H                                       1.0855888
    32   6 C       67   1 H                                       1.0873107
    32   6 C       68   1 H                                       1.0868540
    33   6 C       69   1 H                                       1.0856323
    33   6 C       70   1 H                                       1.0868037
    33   6 C       71   1 H                                       1.0868709

 * 4 distinct bonds (by element types)

   Z      Z             #   av. dist./Å        max./Å        min./Å
   1 H    6 C          36     1.0878992     1.0975446     1.0771366
   6 C    6 C          16     1.4248496     1.5353734     1.3861190
   6 C    7 N           4     1.3590620     1.4426741     1.2483114
   6 C    8 O           8     1.3647184     1.4123537     1.2917255


optimized geometry written to: xtbopt.xyz


           -------------------------------------------------
          | TOTAL ENERGY              -99.287770420272 Eh   |
          | GRADIENT NORM               0.002190589374 Eh/α |
          | HOMO-LUMO GAP               1.303257465139 eV   |
           -------------------------------------------------

------------------------------------------------------------------------
 * finished run on 2024/04/06 at 11:14:43.770     
------------------------------------------------------------------------
 total:
 * wall-time:     0 d,  0 h,  0 min,  0.472 sec
 *  cpu-time:     0 d,  0 h,  0 min,  0.442 sec
 * ratio c/w:     0.936 speedup
 SCF:
 * wall-time:     0 d,  0 h,  0 min,  0.119 sec
 *  cpu-time:     0 d,  0 h,  0 min,  0.119 sec
 * ratio c/w:     0.999 speedup
 ANC optimizer:
 * wall-time:     0 d,  0 h,  0 min,  0.307 sec
 *  cpu-time:     0 d,  0 h,  0 min,  0.297 sec
 * ratio c/w:     0.970 speedup

