25
 energy: -42.083110808377 gnorm: 0.002046053367 xtb: 6.6.1 (8d0f1dd)
C            3.17866572789905        0.83437894046885        0.07660783588633
N            2.27073729461177       -0.13341255025580        0.04542827275836
C            2.48340897609564       -1.46913270521611        0.02645212492707
N            1.29399060113884       -2.12194049324919       -0.00105498491935
C            0.29592775437561       -1.19178501531976       -0.00118280608990
C            0.89161396331405        0.05466802597387        0.02905378606369
C            0.11556148125425        1.27817665026090        0.04339622841678
O            0.56867955456553        2.39670175918002        0.06085688139102
N           -1.25021802377355        0.99993117514750        0.03934972730203
C           -2.16454083239050        2.13611427279484        0.07692482248519
C           -1.87210874725133       -0.23406795384475        0.00424931754252
O           -3.06232745991222       -0.35995307827245       -0.00403582475789
N           -1.03082140504050       -1.37527056890637       -0.02066504059318
C           -1.63429912191154       -2.69294458587579       -0.05531495519234
H            2.83325298690746        1.85352924168805        0.08358345384043
H            4.22274793543727        0.58257593155010        0.08695520170105
H            3.96852688692091        4.13301438778986       -0.54029502958009
H            3.44388769313611       -1.94133534297640        0.03703644857152
H           -1.56994226534316        3.04503563785969        0.11471161648313
H           -2.79509205495051        2.13262130669905       -0.81088967972183
H           -2.80386861120695        2.06325185880379        0.95610663186193
H           -1.33491072351083       -3.27343361668920        0.81789164824358
H           -1.35797371120247       -3.21783738950166       -0.97024649003223
H           -2.71482332799750       -2.55546841907353       -0.03780127838226
H            1.18435694293457       -3.12517892743552       -0.02594629030562
