      -----------------------------------------------------------      
     |                   =====================                   |     
     |                           x T B                           |     
     |                   =====================                   |     
     |                         S. Grimme                         |     
     |          Mulliken Center for Theoretical Chemistry        |     
     |                    University of Bonn                     |     
      -----------------------------------------------------------      

   * xtb version 6.6.1 (8d0f1dd) compiled by 'conda@1efc2f54142f' on 2023-08-01

   xtb is free software: you can redistribute it and/or modify it under
   the terms of the GNU Lesser General Public License as published by
   the Free Software Foundation, either version 3 of the License, or
   (at your option) any later version.
   
   xtb is distributed in the hope that it will be useful,
   but WITHOUT ANY WARRANTY; without even the implied warranty of
   MERCHANTABILITY or FITNESS FOR A PARTICULAR PURPOSE.  See the
   GNU Lesser General Public License for more details.
   
   Cite this work as:
   * C. Bannwarth, E. Caldeweyher, S. Ehlert, A. Hansen, P. Pracht,
     J. Seibert, S. Spicher, S. Grimme, WIREs Comput. Mol. Sci., 2020, 11,
     e01493. DOI: 10.1002/wcms.1493
   
   for GFN2-xTB:
   * C. Bannwarth, S. Ehlert and S. Grimme., J. Chem. Theory Comput., 2019,
     15, 1652-1671. DOI: 10.1021/acs.jctc.8b01176
   for GFN1-xTB:
   * S. Grimme, C. Bannwarth, P. Shushkov, J. Chem. Theory Comput., 2017,
     13, 1989-2009. DOI: 10.1021/acs.jctc.7b00118
   for GFN0-xTB:
   * P. Pracht, E. Caldeweyher, S. Ehlert, S. Grimme, ChemRxiv, 2019, preprint.
     DOI: 10.26434/chemrxiv.8326202.v1
   for GFN-FF:
   * S. Spicher and S. Grimme, Angew. Chem. Int. Ed., 2020, 59, 15665-15673.
     DOI: 10.1002/anie.202004239
   
   for ALPB and GBSA implicit solvation:
   * S. Ehlert, M. Stahn, S. Spicher, S. Grimme, J. Chem. Theory Comput.,
     2021, 17, 4250-4261. DOI: 10.1021/acs.jctc.1c00471
   
   for DFT-D4:
   * E. Caldeweyher, C. Bannwarth and S. Grimme, J. Chem. Phys., 2017,
     147, 034112. DOI: 10.1063/1.4993215
   * E. Caldeweyher, S. Ehlert, A. Hansen, H. Neugebauer, S. Spicher,
     C. Bannwarth and S. Grimme, J. Chem. Phys., 2019, 150, 154122.
     DOI: 10.1063/1.5090222
   * E. Caldeweyher, J.-M. Mewes, S. Ehlert and S. Grimme, Phys. Chem. Chem. Phys.
     2020, 22, 8499-8512. DOI: 10.1039/D0CP00502A
   
   for sTDA-xTB:
   * S. Grimme and C. Bannwarth, J. Chem. Phys., 2016, 145, 054103.
     DOI: 10.1063/1.4959605
   
   in the mass-spec context:
   * V. Asgeirsson, C. Bauer and S. Grimme, Chem. Sci., 2017, 8, 4879.
     DOI: 10.1039/c7sc00601b
   * J. Koopman and S. Grimme, ACS Omega 2019, 4, 12, 15120-15133.
     DOI: 10.1021/acsomega.9b02011
   
   for metadynamics refer to:
   * S. Grimme, J. Chem. Theory Comput., 2019, 155, 2847-2862
     DOI: 10.1021/acs.jctc.9b00143
   
   for SPH calculations refer to:
   * S. Spicher and S. Grimme, J. Chem. Theory Comput., 2021, 17, 1701-1714
     DOI: 10.1021/acs.jctc.0c01306
   
   with help from (in alphabetical order)
   P. Atkinson, C. Bannwarth, F. Bohle, G. Brandenburg, E. Caldeweyher
   M. Checinski, S. Dohm, S. Ehlert, S. Ehrlich, I. Gerasimov, C. Hölzer
   A. Katbashev, J. Koopman, C. Lavigne, S. Lehtola, F. März, M. Müller,
   F. Musil, H. Neugebauer, J. Pisarek, C. Plett, P. Pracht, F. Pultar,
   J. Seibert, P. Shushkov, S. Spicher, M. Stahn, M. Steiner, T. Strunk,
   J. Stückrath, T. Rose, and J. Unsleber
   
 * started run on 2024/04/06 at 11:16:08.882     

           -------------------------------------------------
          |                Calculation Setup                |
           -------------------------------------------------

          program call               : xtb xtbopt.xyz --opt crude --input .xc2 --gfn2
          hostname                   : n-62-30-23
          coordinate file            : xtbopt.xyz
          omp threads                :                     1

   ID    Z sym.   atoms
    1    7 N      1, 17
    2    6 C      2-6, 8, 9, 11-16, 18-23, 25, 26, 28-33
    3    8 O      7, 10, 24, 27
    4    1 H      34-72
########################################################################
[WARNING] Please study the warnings concerning your input carefully
-1- readin_getIntValue: could not parse ''
########################################################################

           -------------------------------------------------
          |                 G F N 2 - x T B                 |
           -------------------------------------------------

        Reference                      10.1021/acs.jctc.8b01176
      * Hamiltonian:
        H0-scaling (s, p, d)           1.850000    2.230000    2.230000
        zeta-weighting                 0.500000
      * Dispersion:
        s8                             2.700000
        a1                             0.520000
        a2                             5.000000
        s9                             5.000000
      * Repulsion:
        kExp                           1.500000    1.000000
        rExp                           1.000000
      * Coulomb:
        alpha                          2.000000
        third order                    shell-resolved
        anisotropic                    true
        a3                             3.000000
        a5                             4.000000
        cn-shift                       1.200000
        cn-exp                         4.000000
        max-rad                        5.000000

q/qsh data taken from xtbrestart
CAMM data taken from xtbrestart

          ...................................................
          :                      SETUP                      :
          :.................................................:
          :  # basis functions                 171          :
          :  # atomic orbitals                 171          :
          :  # shells                          105          :
          :  # electrons                       180          :
          :  max. iterations                   250          :
          :  Hamiltonian                  GFN2-xTB          :
          :  restarted?                       true          :
          :  GBSA solvation                  false          :
          :  PC potential                    false          :
          :  electronic temp.         5000.0000000     K    :
          :  accuracy                    1.0000000          :
          :  -> integral cutoff          0.2500000E+02      :
          :  -> integral neglect         0.1000000E-07      :
          :  -> SCF convergence          0.1000000E-05 Eh   :
          :  -> wf. convergence          0.1000000E-03 e    :
          :  Broyden damping             0.4000000          :
          ...................................................

 iter      E             dE          RMSdq      gap      omega  full diag
   1   -100.7567916 -0.100757E+03  0.463E-05    1.13       0.0  T
   2   -100.7567916  0.298002E-09  0.626E-05    1.13     188.2  T
   3   -100.7567916 -0.468532E-09  0.158E-05    1.13     746.3  T

   *** convergence criteria satisfied after 3 iterations ***

         #    Occupation            Energy/Eh            Energy/eV
      -------------------------------------------------------------
         1        2.0000           -0.8326975             -22.6589
       ...           ...                  ...                  ...
        84        1.9949           -0.5131574             -13.9637
        85        1.9918           -0.5057195             -13.7613
        86        1.9675           -0.4836937             -13.1620
        87        1.9411           -0.4740621             -12.8999
        88        1.9234           -0.4697604             -12.7828
        89        1.8112           -0.4545202             -12.3681
        90        1.7383           -0.4487050             -12.2099 (HOMO)
        91        0.6529           -0.4072539             -11.0819 (LUMO)
        92        0.0038           -0.3196773              -8.6989
        93        0.0017           -0.3070205              -8.3545
        94        0.0015           -0.3049926              -8.2993
        95        0.0000           -0.2369065              -6.4466
       ...           ...                  ...                  ...
       171                          1.1100950              30.2072
      -------------------------------------------------------------
                  HL-Gap            0.0414511 Eh            1.1279 eV
             Fermi-level           -0.4187221 Eh          -11.3940 eV

 SCC (total)                   0 d,  0 h,  0 min,  0.120 sec
 SCC setup                      ...        0 min,  0.001 sec (  1.174%)
 Dispersion                     ...        0 min,  0.002 sec (  1.414%)
 classical contributions        ...        0 min,  0.001 sec (  0.457%)
 integral evaluation            ...        0 min,  0.018 sec ( 15.326%)
 iterations                     ...        0 min,  0.028 sec ( 23.235%)
 molecular gradient             ...        0 min,  0.069 sec ( 57.856%)
 printout                       ...        0 min,  0.001 sec (  0.525%)

         :::::::::::::::::::::::::::::::::::::::::::::::::::::
         ::                     SUMMARY                     ::
         :::::::::::::::::::::::::::::::::::::::::::::::::::::
         :: total energy             -99.310612277631 Eh    ::
         :: gradient norm              0.780866640405 Eh/a0 ::
         :: HOMO-LUMO gap              1.127942239773 eV    ::
         ::.................................................::
         :: SCC energy              -100.756791600334 Eh    ::
         :: -> isotropic ES            0.102668169266 Eh    ::
         :: -> anisotropic ES          0.009974654543 Eh    ::
         :: -> anisotropic XC          0.035791748067 Eh    ::
         :: -> dispersion             -0.074759465911 Eh    ::
         :: repulsion energy           1.445245383040 Eh    ::
         :: add. restraining           0.000000000000 Eh    ::
         :: total charge               1.000000000000 e     ::
         :::::::::::::::::::::::::::::::::::::::::::::::::::::

      ----------------------------------------------------------- 
     |                   =====================                   |
     |                        A N C O P T                        |
     |                   =====================                   |
     |               Approximate Normal Coordinate               |
     |                Rational Function Optimizer                |
      ----------------------------------------------------------- 

          ...................................................
          :                      SETUP                      :
          :.................................................:
          :   optimization level             crude          :
          :   max. optcycles                   200          :
          :   ANC micro-cycles                  20          :
          :   degrees of freedom               210          :
          :.................................................:
          :   RF solver                   davidson          :
          :   write xtbopt.log                true          :
          :   linear?                        false          :
          :   energy convergence         0.5000000E-03 Eh   :
          :   grad. convergence          0.1000000E-01 Eh/α :
          :   maxmium RF displ.          1.0000000          :
          :   Hlow (freq-cutoff)         0.1000000E-01      :
          :   Hmax (freq-cutoff)         5.0000000          :
          :   S6 in model hess.         20.0000000          :
          ...................................................

generating ANC from model Hessian ...
Using Lindh-Hessian (1995)
 Shifting diagonal of input Hessian by    9.9215721897792236E-003
 Lowest  eigenvalues of input Hessian
    0.000000    0.000000    0.000000    0.000000    0.000000    0.000000
    0.010000    0.010016    0.010091    0.010277    0.010361    0.010734
    0.010879    0.011259    0.011723    0.012142    0.012373    0.013085
 Highest eigenvalues
    1.925314    1.965626    2.044589    2.065487    2.181999    2.244390


........................................................................
.............................. CYCLE    1 ..............................
........................................................................

 iter      E             dE          RMSdq      gap      omega  full diag
   1   -100.7567916 -0.100757E+03  0.114E-05    1.13       0.0  T
   2   -100.7567916  0.219416E-10  0.150E-05    1.13     785.5  T
   3   -100.7567916 -0.396767E-10  0.444E-06    1.13    2657.2  T
     SCC iter.                  ...        0 min,  0.026 sec
     gradient                   ...        0 min,  0.069 sec
 * total energy  :   -99.3106123 Eh     change       -0.6750156E-11 Eh
   gradient norm :     0.7808667 Eh/α   predicted     0.0000000E+00 (-100.00%)
   displ. norm   :     0.3656742 α      lambda       -0.2652971E+00
   maximum displ.:     0.2858974 α      in ANC's #210, #206, #141, ...

........................................................................
.............................. CYCLE    2 ..............................
........................................................................

 iter      E             dE          RMSdq      gap      omega  full diag
   1   -100.7441025 -0.100744E+03  0.219E-01    1.16       0.0  T
   2   -100.7441817 -0.791674E-04  0.130E-01    1.08       1.0  T
   3   -100.7423846  0.179705E-02  0.135E-01    1.28       1.0  T
   4   -100.7444787 -0.209405E-02  0.295E-02    1.11       1.0  T
   5   -100.7445118 -0.331533E-04  0.132E-02    1.14       1.0  T
   6   -100.7445272 -0.153846E-04  0.554E-03    1.13       2.1  T
   7   -100.7445280 -0.812185E-06  0.245E-03    1.13       4.8  T
   8   -100.7445284 -0.363902E-06  0.848E-04    1.13      13.9  T
   9   -100.7445284 -0.271789E-07  0.333E-04    1.13      35.4  T
     SCC iter.                  ...        0 min,  0.073 sec
     gradient                   ...        0 min,  0.069 sec
 * total energy  :   -99.4202606 Eh     change       -0.1096483E+00 Eh
   gradient norm :     0.0512731 Eh/α   predicted    -0.1503866E+00 (  37.15%)
   displ. norm   :     0.1073980 α      lambda       -0.1917645E-02
   maximum displ.:     0.0402090 α      in ANC's #21, #62, #49, ...

........................................................................
.............................. CYCLE    3 ..............................
........................................................................

 iter      E             dE          RMSdq      gap      omega  full diag
   1   -100.7394044 -0.100739E+03  0.452E-02    1.13       0.0  T
   2   -100.7394057 -0.124432E-05  0.275E-02    1.13       1.0  T
   3   -100.7393599  0.457409E-04  0.217E-02    1.11       1.0  T
   4   -100.7394060 -0.460675E-04  0.652E-03    1.14       1.8  T
   5   -100.7394109 -0.494105E-05  0.206E-03    1.13       5.7  T
   6   -100.7394114 -0.426721E-06  0.732E-04    1.13      16.1  T
   7   -100.7394114 -0.311708E-07  0.317E-04    1.13      37.2  T
     SCC iter.                  ...        0 min,  0.057 sec
     gradient                   ...        0 min,  0.069 sec
 * total energy  :   -99.4217392 Eh     change       -0.1478645E-02 Eh
   gradient norm :     0.0333393 Eh/α   predicted    -0.9757541E-03 ( -34.01%)
   displ. norm   :     0.1405123 α      lambda       -0.1557251E-02
   maximum displ.:     0.0684509 α      in ANC's #21, #32, #22, ...

........................................................................
.............................. CYCLE    4 ..............................
........................................................................

 iter      E             dE          RMSdq      gap      omega  full diag
   1   -100.7346384 -0.100735E+03  0.427E-02    1.12       0.0  T
   2   -100.7346410 -0.266172E-05  0.250E-02    1.13       1.0  T
   3   -100.7346027  0.383564E-04  0.185E-02    1.11       1.0  T
   4   -100.7346386 -0.359418E-04  0.695E-03    1.13       1.7  T
   5   -100.7346445 -0.588139E-05  0.141E-03    1.13       8.4  T
   6   -100.7346446 -0.129162E-06  0.706E-04    1.13      16.7  T
   7   -100.7346447 -0.304086E-07  0.242E-04    1.13      48.8  T
     SCC iter.                  ...        0 min,  0.058 sec
     gradient                   ...        0 min,  0.069 sec
 * total energy  :   -99.4226611 Eh     change       -0.9219238E-03 Eh
   gradient norm :     0.0096313 Eh/α   predicted    -0.7932908E-03 ( -13.95%)
   displ. norm   :     0.0620127 α      lambda       -0.3032144E-03
   maximum displ.:     0.0310458 α      in ANC's #21, #2, #14, ...

........................................................................
.............................. CYCLE    5 ..............................
........................................................................

 iter      E             dE          RMSdq      gap      omega  full diag
   1   -100.7344340 -0.100734E+03  0.123E-02    1.13       0.0  T
   2   -100.7344343 -0.224325E-06  0.728E-03    1.12       1.6  T
   3   -100.7344305  0.375377E-05  0.578E-03    1.13       2.0  T
   4   -100.7344344 -0.395171E-05  0.161E-03    1.12       7.3  T
   5   -100.7344346 -0.183171E-06  0.740E-04    1.13      15.9  T
   6   -100.7344347 -0.615640E-07  0.218E-04    1.13      54.0  T
     SCC iter.                  ...        0 min,  0.050 sec
     gradient                   ...        0 min,  0.069 sec
 * total energy  :   -99.4227604 Eh     change       -0.9925637E-04 Eh
   gradient norm :     0.0024926 Eh/α   predicted    -0.7673286E-04 ( -22.69%)
   displ. norm   :     0.0528293 α      lambda       -0.1167791E-03
   maximum displ.:     0.0264157 α      in ANC's #2, #21, #14, ...

   *** GEOMETRY OPTIMIZATION CONVERGED AFTER 5 ITERATIONS ***

------------------------------------------------------------------------
 total energy gain   :        -0.1121481 Eh      -70.3740 kcal/mol
 total RMSD          :         0.0637933 a0        0.0338 Å
 total power (kW/mol):       -58.8889711 (step) -369.6347 (real)
------------------------------------------------------------------------

 ANCopt (total)                0 d,  0 h,  0 min,  0.797 sec
 optimizer setup                ...        0 min,  0.000 sec (  0.025%)
 model hessian                  ...        0 min,  0.058 sec (  7.264%)
 ANC generation                 ...        0 min,  0.006 sec (  0.792%)
 coordinate transformation      ...        0 min,  0.000 sec (  0.042%)
 single point calculation       ...        0 min,  0.720 sec ( 90.375%)
 optimization log               ...        0 min,  0.003 sec (  0.404%)
 hessian update                 ...        0 min,  0.002 sec (  0.194%)
 rational function              ...        0 min,  0.005 sec (  0.686%)

================
 final structure:
================
72
 xtb: 6.6.1 (8d0f1dd)
N           -0.86701130251988        1.20853086173316        0.82841149210586
C           -2.26959913164096        1.15631474203524        1.06439707288773
C           -3.16478941442029        1.96196943058388        0.05339185130964
C           -3.93501599172585        0.67339466923923       -0.12402877045812
C           -5.09142407450580        0.13023909311053       -0.86133588125485
C           -5.26217767756336       -1.32063979118142       -0.51894289368141
O           -6.28244293080910       -2.02882028071087       -1.01879088498549
C           -7.23615940506121       -1.41151299959808       -1.85043306584813
C           -4.38986322981100       -2.03467984574603        0.32409206978860
O           -4.72146920558586       -3.33986876011719        0.47886021621745
C           -3.94365669093311       -4.15012423685639        1.32884103927898
C           -3.29316581282845       -1.41984949754417        0.94817226457931
C           -3.12423014544483       -0.05929502991726        0.68747149418016
C           -2.38419565447981        2.34071044908281       -1.20978418421251
C           -1.38855530244785        1.24698316473242       -1.57950498856458
C           -0.29647686711627        1.15980806160647       -0.50797265427993
N            0.57849783655043        0.03101192944863       -0.72230852562141
C            1.96037631621222        0.17474511234517       -0.33011744045321
C            2.92024702541012       -0.40411536087503       -1.38748986686203
C            4.33575606163814       -0.16075226436898       -0.95621722634629
C            4.97596123563817        1.03303524350998       -1.25919107576096
C            6.26081832822441        1.28665785294374       -0.80757241278234
C            6.93675539337978        0.35016161822066       -0.03620828168157
O            8.17870514579916        0.49051932086211        0.46181524577267
C            8.89935686893378        1.67140335402682        0.19511872449038
C            6.29154861775428       -0.87948972789693        0.27679717327727
O            7.01763100235818       -1.73394385478357        1.02360411751644
C            6.47073118999945       -2.98453482888278        1.36780326250822
C            5.00437309264395       -1.10805324245536       -0.18581587735624
C            0.04010589792107       -1.29058198653924       -0.50168732300482
C           -3.96419359276749        3.14988562669902        0.62070484997903
C           -4.90172517460909        2.72509991821852        1.75213298136639
C           -3.04722744421090        4.26721913032692        1.11620153908098
H           -4.94158041305722        0.23650869515123       -1.94861798526391
H           -7.77102610102012       -0.61375180391699       -1.32601611384363
H           -7.94029325978898       -2.19573046358304       -2.12144787358469
H           -6.78044570095732       -1.00379113236979       -2.75735619900156
H           -3.94786798752133       -3.77647483634186        2.35730041057993
H           -4.41325102752326       -5.13142865971804        1.30183753805916
H           -2.91226335671599       -4.23408890569467        0.97144782177685
H           -2.63856710156462       -1.96837778886704        1.60310666644539
H           -6.00878464868697        0.69164678254181       -0.63965563150282
H           -3.08740942470640        2.50328704456118       -2.02829844983058
H           -1.83802367564287        3.26729713893869       -1.04056120937498
H           -1.90344807895489        0.29171950767574       -1.67994180112784
H           -0.91228882391032        1.47293257988082       -2.53302021655521
H           -2.43495601162549        1.43963095284907        2.10620211425512
H            0.33500875697737        2.05635247647754       -0.61582816755343
H            2.15815917888120       -0.32598197248857        0.63035665912194
H            2.18940537605328        1.23489337154993       -0.20686122728412
H            2.72111305914958        0.08552054043266       -2.34079462910694
H            2.73899076204780       -1.47250906091783       -1.50071151100766
H            4.47161274095816        1.77481756766994       -1.85924528506241
H            6.73196745922861        2.22208942933056       -1.06170320807092
H            8.39628025825155        2.54961075153708        0.61130387750946
H            9.05331437271578        1.81293943785474       -0.87867651113105
H            9.86293919107828        1.54190841425550        0.68424184536491
H            7.23779180577392       -3.48807157982339        1.95297965297195
H            5.56703423024629       -2.87350835234427        1.97548562774867
H            6.24315819718864       -3.58084471381516        0.47887541157125
H            4.50650167634728       -2.03698398347484        0.04414325243520
H            0.42514513510997       -1.97264660205458       -1.26126232780239
H           -1.04401226675865       -1.27595614396567       -0.57387013041641
H            0.31823609909783       -1.68820293235811        0.48377498751621
H           -4.57799077468783        3.53764030900683       -0.20094540440803
H           -4.34166732757986        2.44157793737759        2.63929870497718
H           -5.52628311025106        1.88434200970432        1.46244353042915
H           -5.55026593511663        3.55536023088113        2.01949190062088
H           -2.31389165241916        3.87849680531260        1.81796193424345
H           -2.52087895010129        4.75056899263774        0.29847961621393
H           -3.63826485833210        5.02586249546064        1.62260388746777
H           -0.31416717917712        0.71605711188043        1.51432924404257

 Bond Distances (Angstroems)
 ---------------------------
N1-C2=1.4233         N1-C16=1.4539        N1-H72=1.0093        C2-N1=1.4233         C2-C3=1.5724         C2-C13=1.5330        
C2-H47=1.0922        C3-C2=1.5724         C3-C4=1.5117         C3-C14=1.5324        C3-C31=1.5401        C4-C3=1.5117         
C4-C5=1.4751         C4-C13=1.3612        C5-C4=1.4751         C5-C6=1.5005         C5-H34=1.1027        C5-H42=1.0981        
C6-C5=1.5005         C6-O7=1.3388         C6-C9=1.4077         O7-C6=1.3388         O7-C8=1.4079         C8-O7=1.4079         
C8-H35=1.0943        C8-H36=1.0882        C8-H37=1.0938        C9-C6=1.4077         C9-O10=1.3555        C9-C12=1.4037        
O10-C9=1.3555        O10-C11=1.4085       C11-O10=1.4085       C11-H38=1.0942       C11-H39=1.0882       C11-H40=1.0948       
C12-C9=1.4037        C12-C13=1.3956       C12-H41=1.0763       C13-C2=1.5330        C13-C4=1.3612        C13-C12=1.3956       
C14-C3=1.5324        C14-C15=1.5245       C14-H43=1.0913       C14-H44=1.0888       C15-C14=1.5245       C15-C16=1.5325       
C15-H45=1.0898       C15-H46=1.0895       C16-N1=1.4539        C16-C15=1.5325       C16-N17=1.4442       C16-H48=1.1019       
N17-C16=1.4442       N17-C18=1.4436       N17-C30=1.4440       C18-N17=1.4436       C18-C19=1.5409       C18-H49=1.1011       
C18-H50=1.0916       C19-C18=1.5409       C19-C20=1.4996       C19-H51=1.0900       C19-H52=1.0896       C20-C19=1.4996       
C20-C21=1.3881       C20-C29=1.3921       C21-C20=1.3881       C21-C22=1.3853       C21-H53=1.0792       C22-C21=1.3853       
C22-C23=1.3889       C22-H54=1.0778       C23-C22=1.3889       C23-O24=1.3454       C23-C26=1.4235       O24-C23=1.3454       
O24-C25=1.4089       C25-O24=1.4089       C25-H55=1.0943       C25-H56=1.0940       C25-H57=1.0883       C26-C23=1.4235       
C26-O27=1.3472       C26-C29=1.3867       O27-C26=1.3472       O27-C28=1.4077       C28-O27=1.4077       C28-H58=1.0883       
C28-H59=1.0947       C28-H60=1.0943       C29-C20=1.3921       C29-C26=1.3867       C29-H61=1.0787       C30-N17=1.4440       
C30-H62=1.0911       C30-H63=1.0866       C30-H64=1.0985       C31-C3=1.5401        C31-C32=1.5296       C31-C33=1.5280       
C31-H65=1.0965       C32-C31=1.5296       C32-H66=1.0868       C32-H67=1.0867       C32-H68=1.0869       C33-C31=1.5280       
C33-H69=1.0869       C33-H70=1.0860       C33-H71=1.0869       H34-C5=1.1027        H35-C8=1.0943        H36-C8=1.0882        
H37-C8=1.0938        H38-C11=1.0942       H39-C11=1.0882       H40-C11=1.0948       H41-C12=1.0763       H42-C5=1.0981        
H43-C14=1.0913       H44-C14=1.0888       H45-C15=1.0898       H46-C15=1.0895       H47-C2=1.0922        H48-C16=1.1019       
H49-C18=1.1011       H50-C18=1.0916       H51-C19=1.0900       H52-C19=1.0896       H53-C21=1.0792       H54-C22=1.0778       
H55-C25=1.0943       H56-C25=1.0940       H57-C25=1.0883       H58-C28=1.0883       H59-C28=1.0947       H60-C28=1.0943       
H61-C29=1.0787       H62-C30=1.0911       H63-C30=1.0866       H64-C30=1.0985       H65-C31=1.0965       H66-C32=1.0868       
H67-C32=1.0867       H68-C32=1.0869       H69-C33=1.0869       H70-C33=1.0860       H71-C33=1.0869       H72-N1=1.0093        
 C  H  Rav=1.0905 sigma=0.0061  Rmin=1.0763  Rmax=1.1027    38
 C  C  Rav=1.4675 sigma=0.0682  Rmin=1.3612  Rmax=1.5724    23
 N  H  Rav=1.0093 sigma=0.0000  Rmin=1.0093  Rmax=1.0093     1
 N  C  Rav=1.4418 sigma=0.0100  Rmin=1.4233  Rmax=1.4539     5
 O  C  Rav=1.3775 sigma=0.0311  Rmin=1.3388  Rmax=1.4089     8

 selected bond angles (degree)
 --------------------
C16-N1-C2=122.54               H72-N1-C2=114.16               H72-N1-C16=113.16              C3-C2-N1=115.83                
C13-C2-N1=122.53               C13-C2-C3= 86.03               H47-C2-N1=107.33               H47-C2-C3=113.21               
H47-C2-C13=110.84              C4-C3-C2= 85.92                C14-C3-C2=111.51               C14-C3-C4=111.93               
C31-C3-C2=116.99               C31-C3-C4=115.86               C31-C3-C14=112.17              C5-C4-C3=140.53                
C13-C4-C3= 94.90               C13-C4-C5=124.52               C6-C5-C4=109.34                H34-C5-C4=110.54               
H34-C5-C6=109.49               H42-C5-C4=111.45               H42-C5-C6=110.68               H42-C5-H34=105.27              
O7-C6-C5=120.87                C9-C6-C5=123.82                C9-C6-O7=115.31                C8-O7-C6=120.32                
H35-C8-O7=111.57               H36-C8-O7=105.63               H36-C8-H35=109.17              H37-C8-O7=111.78               
H37-C8-H35=109.22              H37-C8-H36=109.37              O10-C9-C6=113.90               C12-C9-C6=121.89               
C12-C9-O10=124.20              C11-O10-C9=119.19              

 selected dihedral angles (degree)
 ---------------------------------
C3-C2-N1-C16=320.41           C3-C2-N1-H72=177.51           C13-C2-N1-C16= 62.97          C13-C2-N1-H72=280.07          
H47-C2-N1-C16=192.84          H47-C2-N1-H72= 49.94          C4-C3-C2-N1=127.37            C4-C3-C2-C13=  2.95           
C4-C3-C2-H47=251.95           C14-C3-C2-N1= 15.39           C14-C3-C2-C13=250.97          C14-C3-C2-H47=139.97          
C31-C3-C2-N1=244.40           C31-C3-C2-C13=119.98          C31-C3-C2-H47=  8.98          C5-C4-C3-C2=179.30            
C5-C4-C3-C14=290.86           C5-C4-C3-C31= 61.20           C13-C4-C3-C2=356.67           C13-C4-C3-C14=108.23          
C13-C4-C3-C31=238.57          C6-C5-C4-C3=179.61            C6-C5-C4-C13=  2.79           H34-C5-C4-C3= 59.01           
H34-C5-C4-C13=242.19          H42-C5-C4-C3=302.31           H42-C5-C4-C13=125.49          O7-C6-C5-C4=177.15            
O7-C6-C5-H34=298.39           O7-C6-C5-H42= 54.00           C9-C6-C5-C4=356.91            C9-C6-C5-H34=118.15           
C9-C6-C5-H42=233.76           C8-O7-C6-C5=358.34            C8-O7-C6-C9=178.56            H35-C8-O7-C6=298.06           
H36-C8-O7-C6=179.55           H37-C8-O7-C6= 60.69           O10-C9-C6-C5=181.01           O10-C9-C6-O7=  0.78           
C12-C9-C6-C5=  1.78           C12-C9-C6-O7=181.55           C11-O10-C9-C6=181.69          C11-O10-C9-C12=  0.91         
           -------------------------------------------------
          |                Final Singlepoint                |
           -------------------------------------------------

          ...................................................
          :                      SETUP                      :
          :.................................................:
          :  # basis functions                 171          :
          :  # atomic orbitals                 171          :
          :  # shells                          105          :
          :  # electrons                       180          :
          :  max. iterations                   250          :
          :  Hamiltonian                  GFN2-xTB          :
          :  restarted?                      false          :
          :  GBSA solvation                  false          :
          :  PC potential                    false          :
          :  electronic temp.         5000.0000000     K    :
          :  accuracy                    1.0000000          :
          :  -> integral cutoff          0.2500000E+02      :
          :  -> integral neglect         0.1000000E-07      :
          :  -> SCF convergence          0.1000000E-05 Eh   :
          :  -> wf. convergence          0.1000000E-03 e    :
          :  Broyden damping             0.4000000          :
          ...................................................

 iter      E             dE          RMSdq      gap      omega  full diag
   1   -100.7344347 -0.100734E+03  0.113E-04    1.13       0.0  T
   2   -100.7344347  0.967447E-09  0.117E-04    1.13     100.3  T
   3   -100.7344347 -0.176540E-08  0.559E-05    1.13     210.7  T

   *** convergence criteria satisfied after 3 iterations ***

         #    Occupation            Energy/Eh            Energy/eV
      -------------------------------------------------------------
         1        2.0000           -0.8322463             -22.6466
       ...           ...                  ...                  ...
        84        1.9948           -0.5128758             -13.9561
        85        1.9917           -0.5053579             -13.7515
        86        1.9676           -0.4835727             -13.1587
        87        1.9405           -0.4736951             -12.8899
        88        1.9220           -0.4692645             -12.7693
        89        1.8113           -0.4543396             -12.3632
        90        1.7381           -0.4484941             -12.2041 (HOMO)
        91        0.6550           -0.4071372             -11.0788 (LUMO)
        92        0.0038           -0.3193973              -8.6912
        93        0.0017           -0.3068671              -8.3503
        94        0.0015           -0.3047969              -8.2939
        95        0.0000           -0.2380444              -6.4775
       ...           ...                  ...                  ...
       171                          0.5861120              15.9489
      -------------------------------------------------------------
                  HL-Gap            0.0413569 Eh            1.1254 eV
             Fermi-level           -0.4185293 Eh          -11.3888 eV

 SCC (total)                   0 d,  0 h,  0 min,  0.116 sec
 SCC setup                      ...        0 min,  0.001 sec (  0.748%)
 Dispersion                     ...        0 min,  0.002 sec (  1.370%)
 classical contributions        ...        0 min,  0.000 sec (  0.368%)
 integral evaluation            ...        0 min,  0.018 sec ( 15.462%)
 iterations                     ...        0 min,  0.026 sec ( 22.317%)
 molecular gradient             ...        0 min,  0.069 sec ( 59.251%)
 printout                       ...        0 min,  0.001 sec (  0.471%)

         :::::::::::::::::::::::::::::::::::::::::::::::::::::
         ::                     SUMMARY                     ::
         :::::::::::::::::::::::::::::::::::::::::::::::::::::
         :: total energy             -99.422760402232 Eh    ::
         :: gradient norm              0.002492938781 Eh/a0 ::
         :: HOMO-LUMO gap              1.125379226139 eV    ::
         ::.................................................::
         :: SCC energy              -100.734434696123 Eh    ::
         :: -> isotropic ES            0.102474912130 Eh    ::
         :: -> anisotropic ES          0.010031212457 Eh    ::
         :: -> anisotropic XC          0.036755478675 Eh    ::
         :: -> dispersion             -0.074783527035 Eh    ::
         :: repulsion energy           1.310737438614 Eh    ::
         :: add. restraining           0.000000000000 Eh    ::
         :: total charge               1.000000000000 e     ::
         :::::::::::::::::::::::::::::::::::::::::::::::::::::

           -------------------------------------------------
          |                Property Printout                |
           -------------------------------------------------

    * Orbital Energies and Occupations

         #    Occupation            Energy/Eh            Energy/eV
      -------------------------------------------------------------
         1        2.0000           -0.8322463             -22.6466
       ...           ...                  ...                  ...
        78        1.9981           -0.5286209             -14.3845
        79        1.9979           -0.5272391             -14.3469
        80        1.9976           -0.5249058             -14.2834
        81        1.9970           -0.5215979             -14.1934
        82        1.9963           -0.5180334             -14.0964
        83        1.9952           -0.5138623             -13.9829
        84        1.9948           -0.5128758             -13.9561
        85        1.9917           -0.5053579             -13.7515
        86        1.9676           -0.4835727             -13.1587
        87        1.9405           -0.4736951             -12.8899
        88        1.9220           -0.4692645             -12.7693
        89        1.8113           -0.4543396             -12.3632
        90        1.7381           -0.4484941             -12.2041 (HOMO)
        91        0.6550           -0.4071372             -11.0788 (LUMO)
        92        0.0038           -0.3193973              -8.6912
        93        0.0017           -0.3068671              -8.3503
        94        0.0015           -0.3047969              -8.2939
        95        0.0000           -0.2380444              -6.4775
        96        0.0000           -0.1823511              -4.9620
        97                         -0.1029481              -2.8014
        98                         -0.1004096              -2.7323
        99                         -0.0924374              -2.5153
       100                         -0.0901691              -2.4536
       101                         -0.0843062              -2.2941
       ...                                ...                  ...
       171                          0.5861120              15.9489
      -------------------------------------------------------------
                  HL-Gap            0.0413569 Eh            1.1254 eV
             Fermi-level           -0.4185293 Eh          -11.3888 eV

     #   Z          covCN         q      C6AA      α(0)
     1   7 N        2.680    -0.219    25.789     7.542
     2   6 C        4.069     0.043    19.776     6.317
     3   6 C        4.160     0.008    20.351     6.407
     4   6 C        3.248    -0.020    27.461     8.485
     5   6 C        3.806    -0.069    21.824     6.650
     6   6 C        2.853     0.124    25.273     8.240
     7   8 O        1.707    -0.192    17.214     5.602
     8   6 C        3.644     0.019    20.602     6.524
     9   6 C        2.861     0.127    25.220     8.232
    10   8 O        1.706    -0.236    17.914     5.714
    11   6 C        3.643     0.028    20.451     6.501
    12   6 C        2.904    -0.075    29.882     8.963
    13   6 C        3.221    -0.021    27.782     8.569
    14   6 C        3.808    -0.064    21.715     6.633
    15   6 C        3.806    -0.070    21.834     6.652
    16   6 C        3.731     0.099    19.037     6.228
    17   7 N        2.729    -0.140    24.020     7.279
    18   6 C        3.753     0.004    20.573     6.468
    19   6 C        3.808    -0.073    21.880     6.659
    20   6 C        2.969     0.009    27.809     8.650
    21   6 C        2.922    -0.045    29.115     8.849
    22   6 C        2.913    -0.066    29.635     8.927
    23   6 C        2.864     0.134    25.067     8.207
    24   8 O        1.706    -0.218    17.624     5.668
    25   6 C        3.645     0.024    20.500     6.507
    26   6 C        2.862     0.134    25.062     8.206
    27   8 O        1.706    -0.221    17.671     5.676
    28   6 C        3.645     0.026    20.464     6.502
    29   6 C        2.920    -0.077    29.911     8.969
    30   6 C        3.699    -0.040    21.463     6.626
    31   6 C        3.850    -0.016    20.820     6.490
    32   6 C        3.756    -0.112    22.698     6.793
    33   6 C        3.756    -0.115    22.749     6.801
    34   1 H        0.923     0.088     1.898     2.155
    35   1 H        0.924     0.064     2.155     2.296
    36   1 H        0.925     0.093     1.847     2.126
    37   1 H        0.924     0.062     2.171     2.304
    38   1 H        0.924     0.054     2.274     2.358
    39   1 H        0.925     0.082     1.954     2.186
    40   1 H        0.924     0.049     2.327     2.386
    41   1 H        0.926     0.056     2.246     2.344
    42   1 H        0.923     0.088     1.900     2.156
    43   1 H        0.924     0.048     2.346     2.395
    44   1 H        0.925     0.061     2.190     2.314
    45   1 H        0.925     0.046     2.372     2.409
    46   1 H        0.925     0.056     2.242     2.342
    47   1 H        0.924     0.058     2.222     2.331
    48   1 H        0.923     0.051     2.302     2.373
    49   1 H        0.923     0.031     2.572     2.508
    50   1 H        0.924     0.048     2.343     2.394
    51   1 H        0.925     0.060     2.198     2.319
    52   1 H        0.925     0.054     2.266     2.354
    53   1 H        0.926     0.052     2.296     2.370
    54   1 H        0.926     0.060     2.204     2.321
    55   1 H        0.924     0.056     2.245     2.343
    56   1 H        0.924     0.058     2.227     2.334
    57   1 H        0.925     0.083     1.949     2.183
    58   1 H        0.925     0.082     1.958     2.188
    59   1 H        0.924     0.051     2.309     2.376
    60   1 H        0.924     0.055     2.260     2.351
    61   1 H        0.926     0.052     2.300     2.372
    62   1 H        0.924     0.056     2.242     2.342
    63   1 H        0.925     0.052     2.289     2.366
    64   1 H        0.923     0.032     2.552     2.498
    65   1 H        0.924     0.042     2.421     2.433
    66   1 H        0.925     0.041     2.430     2.438
    67   1 H        0.925     0.033     2.537     2.491
    68   1 H        0.925     0.053     2.288     2.365
    69   1 H        0.925     0.047     2.363     2.404
    70   1 H        0.925     0.042     2.417     2.431
    71   1 H        0.925     0.055     2.260     2.351
    72   1 H        0.860     0.156     1.362     1.828

 Mol. C6AA /au·bohr⁶  :      46401.026022
 Mol. C8AA /au·bohr⁸  :    1054204.637245
 Mol. α(0) /au        :        327.367114


Wiberg/Mayer (AO) data.
largest (>0.10) Wiberg bond orders for each atom

 ---------------------------------------------------------------------------
     #   Z sym  total        # sym  WBO       # sym  WBO       # sym  WBO
 ---------------------------------------------------------------------------
     1   7 N    3.082 --     2 C    1.034    16 C    0.982    72 H    0.946
     2   6 C    3.963 --     1 N    1.034    47 H    0.945    13 C    0.943
                             3 C    0.942
     3   6 C    3.968 --     4 C    0.990    14 C    0.972    31 C    0.960
                             2 C    0.942
     4   6 C    3.760 --    13 C    1.534     5 C    1.041     3 C    0.990
     5   6 C    3.982 --     4 C    1.041     6 C    1.028    42 H    0.915
                            34 H    0.908
     6   6 C    3.679 --     9 C    1.320     7 O    1.156     5 C    1.028
     7   8 O    2.276 --     6 C    1.156     8 C    0.974
     8   6 C    3.920 --    36 H    0.975     7 O    0.974    37 H    0.968
                            35 H    0.966
     9   6 C    3.900 --    12 C    1.322     6 C    1.320    10 O    1.087
    10   8 O    2.240 --     9 C    1.087    11 C    0.978
    11   6 C    3.930 --    10 O    0.978    39 H    0.976    40 H    0.974
                            38 H    0.974
    12   6 C    3.746 --     9 C    1.322    13 C    1.301    41 H    0.963
    13   6 C    3.936 --     4 C    1.534    12 C    1.301     2 C    0.943
    14   6 C    3.978 --    15 C    1.007     3 C    0.972    43 H    0.972
                            44 H    0.965
    15   6 C    3.980 --    14 C    1.007    16 C    0.981    46 H    0.974
                            45 H    0.967
    16   6 C    3.961 --    17 N    0.994     1 N    0.982    15 C    0.981
                            48 H    0.943
    17   7 N    3.122 --    30 C    1.014    18 C    1.008    16 C    0.994
    18   6 C    3.966 --    17 N    1.008    50 H    0.969    19 C    0.968
                            49 H    0.959
    19   6 C    3.977 --    20 C    1.015    52 H    0.970    51 H    0.970
                            18 C    0.968
    20   6 C    3.928 --    21 C    1.392    29 C    1.384    19 C    1.015
    21   6 C    3.931 --    22 C    1.425    20 C    1.392    53 H    0.967
    22   6 C    3.951 --    21 C    1.425    23 C    1.375    54 H    0.963
    23   6 C    3.875 --    22 C    1.375    26 C    1.213    24 O    1.113
    24   8 O    2.245 --    23 C    1.113    25 C    0.976
    25   6 C    3.926 --    57 H    0.977    24 O    0.976    55 H    0.972
                            56 H    0.972
    26   6 C    3.882 --    29 C    1.389    23 C    1.213    27 O    1.107
    27   8 O    2.247 --    26 C    1.107    28 C    0.978
    28   6 C    3.930 --    27 O    0.978    58 H    0.977    59 H    0.973
                            60 H    0.972
    29   6 C    3.953 --    26 C    1.389    20 C    1.384    61 H    0.962
    30   6 C    3.972 --    17 N    1.014    63 H    0.973    62 H    0.972
                            64 H    0.969
    31   6 C    3.976 --    32 C    1.007    33 C    1.007    65 H    0.962
                             3 C    0.960
    32   6 C    3.990 --    31 C    1.007    68 H    0.984    66 H    0.982
                            67 H    0.982
    33   6 C    3.987 --    31 C    1.007    69 H    0.984    71 H    0.981
                            70 H    0.981
    34   1 H    0.950 --     5 C    0.908
    35   1 H    0.989 --     8 C    0.966
    36   1 H    0.991 --     8 C    0.975
    37   1 H    0.989 --     8 C    0.968
    38   1 H    0.994 --    11 C    0.974
    39   1 H    0.992 --    11 C    0.976
    40   1 H    0.994 --    11 C    0.974
    41   1 H    0.995 --    12 C    0.963
    42   1 H    0.957 --     5 C    0.915
    43   1 H    0.996 --    14 C    0.972
    44   1 H    0.994 --    14 C    0.965
    45   1 H    0.997 --    15 C    0.967
    46   1 H    0.996 --    15 C    0.974
    47   1 H    0.989 --     2 C    0.945
    48   1 H    0.986 --    16 C    0.943
    49   1 H    0.985 --    18 C    0.959
    50   1 H    0.997 --    18 C    0.969
    51   1 H    0.993 --    19 C    0.970
    52   1 H    0.995 --    19 C    0.970
    53   1 H    0.996 --    21 C    0.967
    54   1 H    0.994 --    22 C    0.963
    55   1 H    0.990 --    25 C    0.972
    56   1 H    0.990 --    25 C    0.972
    57   1 H    0.992 --    25 C    0.977
    58   1 H    0.993 --    28 C    0.977
    59   1 H    0.991 --    28 C    0.973
    60   1 H    0.991 --    28 C    0.972
    61   1 H    0.996 --    29 C    0.962
    62   1 H    0.987 --    30 C    0.972
    63   1 H    0.997 --    30 C    0.973
    64   1 H    0.986 --    30 C    0.969
    65   1 H    0.995 --    31 C    0.962
    66   1 H    0.997 --    32 C    0.982
    67   1 H    0.998 --    32 C    0.982
    68   1 H    0.996 --    32 C    0.984
    69   1 H    0.996 --    33 C    0.984
    70   1 H    0.997 --    33 C    0.981
    71   1 H    0.994 --    33 C    0.981
    72   1 H    0.974 --     1 N    0.946
 ---------------------------------------------------------------------------

Topologies differ in total number of bonds
Writing topology from bond orders to xtbtopo.mol

molecular dipole:
                 x           y           z       tot (Debye)
 q only:       -1.028       0.087      -0.497
   full:       -1.126      -0.061      -0.345       2.997
molecular quadrupole (traceless):
                xx          xy          yy          xz          yz          zz
 q only:       81.414       4.835     -29.594      12.082      -7.469     -51.820
  q+dip:       78.142       4.487     -29.721      12.117      -9.549     -48.421
   full:       78.334       4.068     -30.508      10.246      -8.512     -47.826

           -------------------------------------------------
          |                Geometry Summary                 |
           -------------------------------------------------

      molecular mass/u    :      455.6105846
   center of mass at/Å    :        0.0116857      -0.0081029      -0.0263063
  moments of inertia/u·Å² :        0.2176158E+04   0.1117644E+05   0.1244708E+05
rotational constants/cm⁻¹ :        0.7746511E-02   0.1508318E-02   0.1354344E-02

 * 71 selected distances

     #   Z          #   Z                                           value/Å
     1   7 N        2   6 C                                       1.4232599
     3   6 C        4   6 C                                       1.5116721
     4   6 C        5   6 C                                       1.4750999
     6   6 C        7   8 O                                       1.3387715
     7   8 O        8   6 C                                       1.4079320
     6   6 C        9   6 C                                       1.4076555
     9   6 C       10   8 O                                       1.3555199
    10   8 O       11   6 C                                       1.4085361
     9   6 C       12   6 C                                       1.4036517
     4   6 C       13   6 C                                       1.3611543
    12   6 C       13   6 C                                       1.3955690
     3   6 C       14   6 C                                       1.5324443
    14   6 C       15   6 C                                       1.5245435
     1   7 N       16   6 C                                       1.4538935
    15   6 C       16   6 C                                       1.5324545
    16   6 C       17   7 N                                       1.4441959
    17   7 N       18   6 C                                       1.4436279
    18   6 C       19   6 C                                       1.5409309 (max)
    20   6 C       21   6 C                                       1.3880867
    21   6 C       22   6 C                                       1.3853310
    22   6 C       23   6 C                                       1.3888553
    23   6 C       24   8 O                                       1.3454246
    24   8 O       25   6 C                                       1.4088837
    23   6 C       26   6 C                                       1.4234841
    26   6 C       27   8 O                                       1.3472225
    27   8 O       28   6 C                                       1.4076756
    20   6 C       29   6 C                                       1.3921015
    26   6 C       29   6 C                                       1.3867492
    17   7 N       30   6 C                                       1.4440050
     3   6 C       31   6 C                                       1.5401417
    31   6 C       32   6 C                                       1.5295550
    31   6 C       33   6 C                                       1.5279982
     5   6 C       34   1 H                                       1.1026917
     8   6 C       35   1 H                                       1.0943120
     8   6 C       36   1 H                                       1.0882329
     8   6 C       37   1 H                                       1.0938107
    11   6 C       38   1 H                                       1.0942397
    11   6 C       39   1 H                                       1.0882126
    11   6 C       40   1 H                                       1.0947842
    12   6 C       41   1 H                                       1.0762537
     5   6 C       42   1 H                                       1.0981217
    14   6 C       43   1 H                                       1.0912867
    14   6 C       44   1 H                                       1.0888082
    15   6 C       45   1 H                                       1.0898307
    15   6 C       46   1 H                                       1.0895294
     2   6 C       47   1 H                                       1.0922312
    16   6 C       48   1 H                                       1.1019070
    18   6 C       49   1 H                                       1.1010706
    18   6 C       50   1 H                                       1.0915864
    19   6 C       51   1 H                                       1.0900403
    19   6 C       52   1 H                                       1.0895588
    21   6 C       53   1 H                                       1.0792005
    22   6 C       54   1 H                                       1.0777738
    25   6 C       55   1 H                                       1.0943238
    25   6 C       56   1 H                                       1.0939707
    25   6 C       57   1 H                                       1.0883481
    28   6 C       58   1 H                                       1.0882844
    28   6 C       59   1 H                                       1.0946566
    28   6 C       60   1 H                                       1.0943345
    29   6 C       61   1 H                                       1.0787352
    30   6 C       62   1 H                                       1.0910645
    30   6 C       63   1 H                                       1.0866171
    30   6 C       64   1 H                                       1.0984512
    31   6 C       65   1 H                                       1.0964534
    32   6 C       66   1 H                                       1.0867901
    32   6 C       67   1 H                                       1.0866769
    32   6 C       68   1 H                                       1.0869307
    33   6 C       69   1 H                                       1.0869012
    33   6 C       70   1 H                                       1.0859738
    33   6 C       71   1 H                                       1.0868802
     1   7 N       72   1 H                                       1.0092821 (min)

 * 5 distinct bonds (by element types)

   Z      Z             #   av. dist./Å        max./Å        min./Å
   1 H    6 C          38     1.0904967     1.1026917     1.0762537
   6 C    6 C          19     1.4551304     1.5409309     1.3611543
   1 H    7 N           1     1.0092821     1.0092821     1.0092821
   6 C    7 N           5     1.4417964     1.4538935     1.4232599
   6 C    8 O           8     1.3774957     1.4088837     1.3387715


optimized geometry written to: xtbopt.xyz


           -------------------------------------------------
          | TOTAL ENERGY              -99.422760402232 Eh   |
          | GRADIENT NORM               0.002492938781 Eh/α |
          | HOMO-LUMO GAP               1.125379226139 eV   |
           -------------------------------------------------

------------------------------------------------------------------------
 * finished run on 2024/04/06 at 11:16:09.971     
------------------------------------------------------------------------
 total:
 * wall-time:     0 d,  0 h,  0 min,  1.089 sec
 *  cpu-time:     0 d,  0 h,  0 min,  1.058 sec
 * ratio c/w:     0.972 speedup
 SCF:
 * wall-time:     0 d,  0 h,  0 min,  0.121 sec
 *  cpu-time:     0 d,  0 h,  0 min,  0.121 sec
 * ratio c/w:     1.000 speedup
 ANC optimizer:
 * wall-time:     0 d,  0 h,  0 min,  0.920 sec
 *  cpu-time:     0 d,  0 h,  0 min,  0.913 sec
 * ratio c/w:     0.992 speedup

