25
 energy: 0.000000000000 xtb: 6.6.1 (8d0f1dd)
C            3.23720163006194        1.16630919979326        0.08434469647475
N            2.29877817382611        0.07527477071623        0.03981603040599
C            2.58028210190900       -1.21425402444508        0.03006176031096
N            1.43813958087363       -1.93419271955128        0.00098261760884
C            0.39035688448383       -1.05887472636071       -0.00790371836672
C            0.93510056364412        0.21347819449412        0.01709077491437
C            0.09450143893243        1.40504303904423       -0.00410947031874
O            0.49712751527797        2.54126714362870       -0.00342325688240
N           -1.25076640035757        1.06271879480407       -0.03085478223738
C           -2.21907211982101        2.15522099834493       -0.05001256985998
C           -1.81739487048744       -0.20012725993278       -0.04692818574614
O           -2.99983886758376       -0.37846417018721       -0.07008878229737
N           -0.92618586207120       -1.30210215599479       -0.03682761578324
C           -1.46982264913417       -2.64643102187190       -0.06029820460571
H            3.71247264356769        1.21471455160235        1.06488849150277
H            4.00791497605742        1.03430808813993       -0.67357694370751
H            2.69910007168542        2.09770118228144       -0.09130154882931
H            3.56654120610678       -1.63682992603973        0.04233140067262
H           -1.67107961066214        3.09322851271934       -0.02552706933167
H           -2.82428953597071        2.09428624779827       -0.95318082946668
H           -2.87644029173232        2.07745725625962        0.81450067533302
H           -1.17061996399332       -3.19584890659852        0.83242232437030
H           -1.14560257411436       -3.17511610292205       -0.95688275822323
H           -2.55549792440841       -2.55659984320617       -0.07459039797972
H            1.38130855184625       -2.94313852034425       -0.01389874181052
25
 energy: 0.271687954510 xtb: 6.6.1 (8d0f1dd)
C            3.24267622568885        1.18844519332407        0.09063699580367
N            2.30498100481585        0.10849232786383        0.02888534634458
C            2.59885142669312       -1.21647738574411        0.01231174235463
N            1.43136292616683       -1.92845579785233       -0.02415919406057
C            0.39507810947600       -1.05165236941818       -0.01674419141033
C            0.92745031846618        0.23146283640784        0.00307923419421
C            0.10556665899886        1.40899146290778       -0.01330029156742
O            0.50610505703698        2.57317813105494       -0.00717187092385
N           -1.25519643479649        1.06571954789444       -0.04244936887934
C           -2.20955159976226        2.17211363423105       -0.04980186498126
C           -1.81754989521940       -0.19110198604955       -0.06017729834768
O           -3.01528286766680       -0.36210038663192       -0.08280160751203
N           -0.93504793664113       -1.31126534706373       -0.02073877340683
C           -1.47180903165368       -2.67838971767983       -0.01104147670758
H            3.71756909418493        1.22407968636406        1.07461268062830
H            4.01430811001246        1.05804424846883       -0.66936466836259
H            2.70144500066339        2.11710707889011       -0.07852196857806
H            3.57769956845971       -1.63745377496612        0.02709180540353
H           -1.64852119518444        3.10508237642510       -0.02560241371135
H           -2.82357386070672        2.12849455461042       -0.94879332362337
H           -2.86170798262242        2.10495499096494        0.82048052542059
H           -1.30061846175750       -3.41901015728949        0.86917841527457
H           -1.08829021559060       -3.21939529354186       -0.86453958932592
H           -2.55473425988812       -2.55011109959564       -0.13696369857183
H            1.37100490876261       -2.93172415140261       -0.04707124930677
25
 energy: 16.714660641893 xtb: 6.6.1 (8d0f1dd)
C            3.24608739829657        1.20937470316789        0.09895567320587
N            2.30583730106428        0.13963887370250        0.01019952923584
C            2.61076446919733       -1.20956732637307       -0.01697222661137
N            1.42548698628337       -1.91199427654723       -0.06050042510991
C            0.39635456778552       -1.04557139399268       -0.03022917667371
C            0.91602096874678        0.24944565728616       -0.01417773601731
C            0.11895205914215        1.41020407172515       -0.02320459511032
O            0.50763314742031        2.59060268340539       -0.01211183351262
N           -1.26037563640506        1.06964222420637       -0.05490441682654
C           -2.19485269547740        2.19591857495930       -0.05019591442918
C           -1.81458462103447       -0.18366675408112       -0.06061050960567
O           -3.01956792172133       -0.34097602855255       -0.10413137887240
N           -0.94618269555927       -1.33281191549219        0.00813295067599
C           -1.48414212854345       -2.72126697351039        0.04114016793381
H            3.72111374728969        1.23136781371930        1.08576705311219
H            4.02257382591986        1.09099989207670       -0.66041717736771
H            2.70774814791623        2.14163971973955       -0.05807116901130
H            3.58453210351627       -1.62567593996365        0.00370240579559
H           -1.61481987740973        3.12067235406291       -0.02718067723915
H           -2.82164604759549        2.17647035568572       -0.94197488912638
H           -2.83838026137414        2.14465871338511        0.82863766721392
H           -1.47815011809176       -3.65981086011165        0.92401973300792
H           -0.99017407897147       -3.28853594278561       -0.74056845860419
H           -2.55570617624875       -2.54915352155781       -0.22519559400612
H            1.36769220379013       -2.91257610198210       -0.09307510590998
25
 energy: 34.352346145402 xtb: 6.6.1 (8d0f1dd)
C            3.24493043326979        1.22058111150701        0.10786492391581
N            2.30179863146201        0.15415128478107       -0.00953700880722
C            2.60953913741534       -1.20036124686956       -0.04774843940251
N            1.42213539574749       -1.89712323632215       -0.09199197884731
C            0.38863128876954       -1.04252635050727       -0.04397735330958
C            0.90643423756391        0.25928521704140       -0.02686394763630
C            0.12622660719301        1.41888210909077       -0.02951478954163
O            0.50690873303242        2.60202079673172       -0.01559896857075
N           -1.26466099048402        1.07927243856674       -0.06358366421394
C           -2.18146507912335        2.22072096504999       -0.05062094357530
C           -1.81738551216052       -0.17468573035556       -0.06108410751456
O           -3.02298699730536       -0.32115909167150       -0.12352572993115
N           -0.95969210721475       -1.34903952736498        0.02777535277602
C           -1.50009553378324       -2.75811538399620        0.07120707258821
H            3.71707441277480        1.22842045794457        1.09751741624731
H            4.02801100223383        1.11771241417567       -0.64799356069577
H            2.71377117938631        2.16040092033862       -0.03581379428455
H            3.58445305215750       -1.61284325246836       -0.02028130507704
H           -1.58162823900587        3.13487730429204       -0.02984808563449
H           -2.81603377151522        2.22141602561536       -0.93689715819788
H           -2.81643442843319        2.18386480564771        0.83526163438074
H           -1.60581064468463       -3.82684194233284        0.97671145278793
H           -0.89750818062119       -3.34830171486752       -0.62546302269147
H           -2.54421887060029       -2.58308460120795       -0.29326069945825
H            1.37022091186186       -2.89849517064676       -0.13569939915902
25
 energy: 49.980078902029 xtb: 6.6.1 (8d0f1dd)
C            3.24402441885915        1.22410182254785        0.11194047263141
N            2.29996313357174        0.15865310537017       -0.02447529999794
C            2.60437735296616       -1.19175821817196       -0.06661886810486
N            1.42230968780914       -1.88467453882443       -0.10699724761434
C            0.38165195718624       -1.03773159485125       -0.05490634078851
C            0.90284490779083        0.26608086298579       -0.03119942844027
C            0.13217676001426        1.43120850572997       -0.03231198073990
O            0.50944666890963        2.61055661380789       -0.01909897745579
N           -1.26598047683781        1.09204377332863       -0.06501510048838
C           -2.17559927665956        2.23759453191529       -0.05231004947532
C           -1.82035704209245       -0.16199647545503       -0.05814704077987
O           -3.02306551308058       -0.30482886174201       -0.13371443520164
N           -0.96651527089203       -1.35145182710918        0.03457692529826
C           -1.50893877508660       -2.77215621175217        0.07585016497748
H            3.71180263017254        1.22403850394755        1.10350487177581
H            4.03066199549675        1.12924965129658       -0.64085138173586
H            2.71701692846790        2.16788037704473       -0.02615105751538
H            3.58146663735693       -1.60298669959358       -0.02947829860860
H           -1.56728378000407        3.14609433177210       -0.03565960661370
H           -2.81213850131069        2.24496290380344       -0.93562858214387
H           -2.80547443899738        2.20852830311780        0.83669422180534
H           -1.68377401584279       -3.98496725646977        1.00452007251067
H           -0.85475758647894       -3.36431842436817       -0.54482279005889
H           -2.51668945600164       -2.60739318710577       -0.32539639474196
H            1.37504572261948       -2.88770138905248       -0.15726995234662
25
 energy: 68.757051837195 xtb: 6.6.1 (8d0f1dd)
C            3.24489114846513        1.22357133179632        0.11011362478215
N            2.30087122736275        0.15705188637788       -0.03856280610503
C            2.59327534881744       -1.17990988343819       -0.07995033277386
N            1.42448705849161       -1.86909479750740       -0.11382556301896
C            0.37311592655181       -1.02716276943397       -0.07254198178865
C            0.90383286957240        0.27554088898747       -0.03103252731063
C            0.14099112230184        1.45032528022661       -0.03509041262095
O            0.51628241416406        2.62068792074248       -0.02162330588481
N           -1.26310039876891        1.11259363952334       -0.06158046512028
C           -2.17404084713424        2.25271922516417       -0.04867139402184
C           -1.82267115937395       -0.13891330081459       -0.06406478677882
O           -3.01939948227967       -0.28376017218903       -0.14138863865431
N           -0.96742523609026       -1.33736493926077        0.01455429413259
C           -1.51763312277928       -2.75791013947141        0.06186905245772
H            3.70916118978510        1.22158944052754        1.10133697689877
H            4.03134025402088        1.13197760682857       -0.64150213687056
H            2.71956047430686        2.16899243566903       -0.02771447955740
H            3.57373925141505       -1.59237651131266       -0.03164336748558
H           -1.56694709653741        3.15998605470256       -0.03499601414881
H           -2.81122809143984        2.25816829087299       -0.92957374535053
H           -2.79937416980219        2.22146767659580        0.84172870393622
H           -1.78586132125371       -4.22136006285402        1.05609255568572
H           -0.79291071202050       -3.36984217519416       -0.43244686399350
H           -2.47882765380309       -2.61286102726012       -0.38237441262497
H            1.38008567396429       -2.87508729710642       -0.17007807763639
25
 energy: 80.048114658483 xtb: 6.6.1 (8d0f1dd)
C            3.24634700972066        1.22422944730374        0.10774011926017
N            2.30224018827085        0.15591038559828       -0.04322864517485
C            2.58464261023539       -1.16887890651872       -0.08328485725376
N            1.42633593642800       -1.85718778261761       -0.11810024031278
C            0.36793361926562       -1.01568239938293       -0.08594860573094
C            0.90703023818051        0.28500476034129       -0.03244838710669
C            0.14775399272875        1.46541103993769       -0.03933790728537
O            0.52176400728242        2.62888857314264       -0.02475776540976
N           -1.25776078815897        1.13014554844132       -0.06135017861739
C           -2.17246309359463        2.26461973233787       -0.04747025934711
C           -1.82097485760292       -0.12018768606896       -0.06831174225135
O           -3.01368888937863       -0.26663521489367       -0.14565036940400
N           -0.96282789605723       -1.31875123476748       -0.00509554891824
C           -1.51825767910071       -2.73067701534741        0.05030725728212
H            3.70794070128913        1.22241068317232        1.09855736660507
H            4.03248192519081        1.13338084620280       -0.64321147306639
H            2.72139114874989        2.17041185078848       -0.03089980355206
H            3.56764538290413       -1.58248407470611       -0.03219478501159
H           -1.57001065167762        3.17365078575678       -0.03568831038198
H           -2.81126531366014        2.26479869634378       -0.92658282838609
H           -2.79562969105292        2.22857107417591        0.84374097839111
H           -1.85955330634841       -4.45753730820621        1.09324725606098
H           -0.76673542640443       -3.36476714271418       -0.34747551374211
H           -2.45368971892266       -2.61024071414103       -0.41833644506786
H            1.38156521964931       -2.86537534200660       -0.17718541543185
25
 energy: 83.624735776444 xtb: 6.6.1 (8d0f1dd)
C            3.24674949908257        1.22273414739238        0.10383610407044
N            2.30559009806369        0.14196486477978       -0.02821906888236
C            2.56985025904348       -1.15345645682185       -0.06833879213640
N            1.43198917759243       -1.85273672601162       -0.11668312315236
C            0.36216258696010       -0.99727133598861       -0.10220292952885
C            0.92111847993987        0.29254398642075       -0.03383609012875
C            0.14648566571235        1.47867484515148       -0.04577819037830
O            0.52468076959615        2.62951951658097       -0.02567557500892
N           -1.24385004932244        1.14887774342726       -0.06413417207642
C           -2.17182027318571        2.27038789636856       -0.04687041718135
C           -1.81761766845679       -0.10059289268522       -0.08438768667409
O           -3.00492893903344       -0.25706222131067       -0.14315297283715
N           -0.94112648616805       -1.26303763769310       -0.07040738113888
C           -1.50043109469799       -2.61668306742774        0.00233695439987
H            3.70595402009718        1.22539031343770        1.09274386716336
H            4.03082252926398        1.13056539558456       -0.64763328600740
H            2.71774829977961        2.16755241192695       -0.03655709250745
H            3.55860767571875       -1.57237602504946       -0.03436667669455
H           -1.58079065091304        3.18502011409766       -0.03457116324196
H           -2.81307830861655        2.25596719959929       -0.92633436700454
H           -2.79781276406400        2.22085448743341        0.84287182540762
H           -1.87909289578460       -4.77486119859355        1.16038700736437
H           -0.79466605699252       -3.34023083683352       -0.25444893209964
H           -2.44211529639241       -2.58906087370782       -0.43529994234500
H            1.37778609071355       -2.86365504790556       -0.17624400323404
25
 energy: 82.776261086017 xtb: 6.6.1 (8d0f1dd)
C            3.24720176258728        1.22098179540898        0.09895192621664
N            2.30869425976038        0.12523679403749       -0.00082245158601
C            2.56114389445636       -1.14443286643897       -0.04641348732595
N            1.44130442157199       -1.86667730871699       -0.11472219050833
C            0.35969466299850       -0.98585625907772       -0.10980387352454
C            0.93803952893233        0.29462566345470       -0.03537152458818
C            0.13122972404788        1.47633375434306       -0.04318822428495
O            0.52574931915238        2.62505216597185       -0.01802211886913
N           -1.22921935224287        1.15076646011511       -0.06553355066563
C           -2.17219158421251        2.26393248596034       -0.04304656534341
C           -1.81987685422632       -0.09786099795558       -0.10799065206893
O           -3.00889340322561       -0.26032401713808       -0.13236155795073
N           -0.92515971820696       -1.20579067996262       -0.15910662521541
C           -1.47715370608236       -2.44215119996310       -0.09325950837788
H            3.70699340023095        1.22683083172278        1.08653834446703
H            4.02724590647557        1.12175840897870       -0.65456499351067
H            2.71053202593712        2.16071353649300       -0.04348016311690
H            3.55400912087938       -1.57294184112819       -0.03508750574880
H           -1.59439989721174        3.18586030471636       -0.02759168351811
H           -2.81533721885490        2.23662074526441       -0.92542961879710
H           -2.80609313316678        2.20197608043617        0.84310221790959
H           -1.80517737306235       -4.94172237202686        1.26015117215445
H           -0.82375565948753       -3.34412029956102       -0.20583837565133
H           -2.49432146559692       -2.56436040264314       -0.43586995241877
H            1.37195600648293       -2.87542218011864       -0.16420514152966
25
 energy: 81.798931960005 xtb: 6.6.1 (8d0f1dd)
C            3.25014025920276        1.22627366605293        0.10320531410745
N            2.31101059399312        0.13242294505280        0.01380873585989
C            2.57170747844917       -1.14594361830974       -0.03219891171097
N            1.45086424606966       -1.87447586121993       -0.11366296960762
C            0.37057688744868       -0.98644322046177       -0.11224173510138
C            0.94249740918281        0.30150324455316       -0.03917807826909
C            0.12850348689425        1.47212030960875       -0.04293782253500
O            0.53146068538310        2.63091067097980       -0.01627828201790
N           -1.22631700022275        1.14596280355060       -0.07575454686711
C           -2.17400764492854        2.25917885475327       -0.05226036648255
C           -1.81623607662942       -0.10320827528978       -0.11643420960905
O           -3.01067612891967       -0.25768732178123       -0.12981689816478
N           -0.92976611893817       -1.21649583489948       -0.17586333443140
C           -1.47487581171933       -2.42212514431501       -0.13494666750231
H            3.71131350038053        1.23760575927478        1.09121174127588
H            4.02803060215592        1.11857701786386       -0.65131581548529
H            2.70759686047274        2.16029819620505       -0.04588011743917
H            3.56101244053519       -1.57615170714497       -0.01497250972913
H           -1.60416301125570        3.18624133729811       -0.03477633228945
H           -2.81452353928030        2.22631206015769       -0.93619654727150
H           -2.81101931023610        2.19199843689066        0.83141193923105
H           -1.70262712509019       -5.02818072753089        1.27682940979369
H           -0.93917288951184       -3.28401105094976       -0.28877098354839
H           -2.52483202333621       -2.52610747212425       -0.32929266648538
H            1.37571689783645       -2.87954646604265       -0.14665444957319
25
 energy: 78.981809229531 xtb: 6.6.1 (8d0f1dd)
C            3.25462263498668        1.22884950987316        0.10534511248990
N            2.31110477135194        0.14840446753996        0.01197271940836
C            2.58147475790328       -1.15120643912263       -0.03342969856215
N            1.45124304004527       -1.86976514237475       -0.12078273143970
C            0.37970852207802       -0.98010672424970       -0.12976151674990
C            0.93942517880878        0.31791084844606       -0.04540631770550
C            0.13747297244964        1.48173869207207       -0.03952505551758
O            0.54516603658874        2.65065724971609       -0.00453961679802
N           -1.22962808765103        1.15847881743606       -0.08403261757299
C           -2.18058614438968        2.26677936621126       -0.04663808498035
C           -1.81150368939912       -0.08595138434555       -0.13839072333254
O           -3.01096016064903       -0.23231545518500       -0.13992306999051
N           -0.94532042917368       -1.23384142596035       -0.20182388917382
C           -1.50157331938184       -2.45682090789995       -0.17744105490161
H            3.71894683012438        1.24189724269082        1.09282752836915
H            4.02805211424363        1.11492430605834       -0.65280630942249
H            2.70871755475149        2.15947759890040       -0.04704594677410
H            3.56406633301771       -1.58079607449075       -0.00270632550758
H           -1.61561590302071        3.19577263160788       -0.02375075625245
H           -2.81781004280938        2.23226107915361       -0.92945087299318
H           -2.81263911837036        2.18515403574245        0.83758791784685
H           -1.69284920612070       -5.08921576242198        1.32636007632164
H           -0.91436321063017       -3.35663278754327       -0.27893774618439
H           -2.54915172689261       -2.48392726815868       -0.30666370006735
H            1.37421496007492       -2.87269787152354       -0.14400342436242
25
 energy: 78.310683157331 xtb: 6.6.1 (8d0f1dd)
C            3.25170026137843        1.22444709361157        0.10416912059148
N            2.30572411466610        0.14736341453778        0.01204892884900
C            2.58017827227735       -1.15730513471286       -0.03369282701506
N            1.44506199525411       -1.87158764841325       -0.11523868342927
C            0.38042512203438       -0.98225534372766       -0.11127983940335
C            0.93365659713759        0.31516880271702       -0.04131122163495
C            0.13262163137641        1.47540277581722       -0.03501472325494
O            0.54141992517446        2.64580740787959       -0.01398122378708
N           -1.23534525576975        1.15410128954071       -0.07847610210691
C           -2.18145193882444        2.26448732005673       -0.04852528917792
C           -1.81105462276760       -0.08687116927213       -0.12431870653255
O           -3.01230080048796       -0.24075297604447       -0.12809064953427
N           -0.94785811915077       -1.23860479199230       -0.18596116005994
C           -1.50366149859943       -2.46333833304618       -0.21809276398285
H            3.71791651096613        1.23610475551794        1.09113377310381
H            4.02613185574951        1.11411736570593       -0.65414282715772
H            2.70861718141064        2.15828196425230       -0.04308316633891
H            3.56143158706329       -1.58455659906544       -0.01080549721792
H           -1.60491600124456        3.18691791022419       -0.03018947603680
H           -2.81834723121888        2.22985391258698       -0.93148274165048
H           -2.81229669328156        2.19219260335123        0.83707405481146
H           -1.64205309639140       -5.02027554193747        1.36847635604553
H           -0.88763275823115       -3.34700589876077       -0.32367221485713
H           -2.58373175367956       -2.48793448657214       -0.31910969410027
H            1.36797938309480       -2.87473009008249       -0.13939952997570
25
 energy: 78.168706352302 xtb: 6.6.1 (8d0f1dd)
C            3.24996421509062        1.22204549794099        0.10569296593843
N            2.30336737864272        0.14402775484373        0.00834320724875
C            2.57618163219945       -1.15621752103686       -0.03576891870527
N            1.44222739970026       -1.86755324898326       -0.11981799252899
C            0.37781048304167       -0.98432185103667       -0.11285770830138
C            0.93041561994305        0.31150317891057       -0.04493511631154
C            0.13278102127654        1.47414944530638       -0.03765909202794
O            0.53819807796192        2.64150138256654       -0.01513410931730
N           -1.23727806936296        1.15446715829747       -0.07952433104272
C           -2.17989041788040        2.26628068497382       -0.04878092675542
C           -1.80974203902407       -0.08390732593928       -0.12423504779758
O           -3.00976105962567       -0.24666526246258       -0.13153347654703
N           -0.94536889129888       -1.23721258465898       -0.18237199910870
C           -1.50750472793343       -2.45505438410347       -0.25160419738065
H            3.71417124904689        1.23427694561459        1.09340217703603
H            4.02820762609770        1.11719706868474       -0.64958262453793
H            2.71107750049065        2.15969420240339       -0.04044483844410
H            3.56012073318308       -1.57950264273546       -0.01257495139053
H           -1.59987453123205        3.18659071575541       -0.02933737645667
H           -2.81783284061214        2.23652042764717       -0.93125587530485
H           -2.81030851273717        2.19561045757910        0.83689470668838
H           -1.62665947900234       -5.04782389597959        1.43017690449095
H           -0.88812379078357       -3.33874774907475       -0.32364852806155
H           -2.58968378535726       -2.48477464602195       -0.32975846511485
H            1.36971987611156       -2.87305520631903       -0.14665049012026
25
 energy: 77.825242061196 xtb: 6.6.1 (8d0f1dd)
C            3.24966835955547        1.22028942723561        0.10499305825316
N            2.30452199246605        0.14041878436044        0.00713936705956
C            2.57389505846114       -1.15624252516512       -0.03478711992997
N            1.44003293527222       -1.86486084091186       -0.11817739551080
C            0.37457338947124       -0.98870428394647       -0.11594260470828
C            0.92905252665384        0.30644303624951       -0.04270371443715
C            0.13697149299270        1.47462583576092       -0.03737131671367
O            0.53640038608518        2.63860804581442       -0.00993330684329
N           -1.23773002053734        1.15457593542628       -0.07657269918423
C           -2.17965232733750        2.26587624512685       -0.04684411586300
C           -1.81012267248236       -0.08132687859670       -0.12463860982462
O           -3.00833184874003       -0.25037375036702       -0.13598546317376
N           -0.94243318598340       -1.23620385819699       -0.17972435404787
C           -1.51185637325955       -2.45648727785503       -0.28693092632632
H            3.71495481936787        1.23463729639062        1.09199457975823
H            4.02703207947714        1.11625025023339       -0.65130036203650
H            2.71165849723501        2.15890072054786       -0.04268125546268
H            3.56074276403149       -1.57672814863037       -0.01225565589862
H           -1.60328910132616        3.18835242360020       -0.02690382025543
H           -2.81698381715240        2.23666553746023       -0.92987023873604
H           -2.81175994418273        2.19438148519649        0.83761392834851
H           -1.61782735356133       -5.03172970238743        1.48474552314006
H           -0.90156530663466       -3.33890037376113       -0.33074220040961
H           -2.58063974338664       -2.48674248879369       -0.34760129954806
H            1.37490206145093       -2.87269629261900       -0.14848610150233
25
 energy: 77.809039435823 xtb: 6.6.1 (8d0f1dd)
C            3.25008260882105        1.22113145441644        0.10606745447081
N            2.30594408955359        0.14047203964869        0.00847544441652
C            2.57347402541891       -1.15619390138373       -0.03505517201868
N            1.44040055278543       -1.86572333172183       -0.11832798932999
C            0.37323208827695       -0.98869472202660       -0.11924632153160
C            0.92999999375554        0.30724559726090       -0.04087956679889
C            0.13867021898884        1.47614776332095       -0.03844369310487
O            0.53645542734783        2.64035622874302       -0.01203979925117
N           -1.23701787296025        1.15494636583009       -0.07543149550744
C           -2.17944762551043        2.26619535410429       -0.04693167714719
C           -1.81298244178495       -0.08057074639062       -0.12434422872250
O           -3.01047664654281       -0.24719220670858       -0.13318015026370
N           -0.94363421780107       -1.23453660830301       -0.18434954327476
C           -1.51162137531225       -2.45135750253510       -0.29958508362387
H            3.71490366307493        1.23425239345674        1.09322420242503
H            4.02675172046506        1.11564664641899       -0.65076398666508
H            2.71077603889717        2.15847233535220       -0.04180843682358
H            3.56004360016451       -1.57830880439281       -0.01252095135326
H           -1.60408704890834        3.18938201836892       -0.02811876850992
H           -2.81714643983935        2.23507946248660       -0.92999737845170
H           -2.81159913325619        2.19507538212848        0.83788370363619
H           -1.61524956538295       -5.04023263567069        1.49174467271940
H           -0.90394601745762       -3.33827120101871       -0.32416872441638
H           -2.57744311632332       -2.49108158166769       -0.34560732011980
H            1.37613214146590       -2.87321119754494       -0.14956129460630
25