72
 energy: -103.311627566588 gnorm: 0.094666192081 xtb: 6.6.1 (8d0f1dd)
N           -1.49093592492557        2.75984707633284        2.23521555035160
C           -1.56437987818692        2.15878817579993        1.14978438135480
C           -2.74792742216043        2.05711208437040        0.24490183562624
C           -3.31873936133776        0.64576532809343        0.32512034403900
C           -4.30381208144562        0.24816753114790       -0.58320785805852
C           -4.85509716609755       -1.01929575497388       -0.53895414927130
O           -5.81709461776322       -1.48199201861330       -1.37269072694776
C           -6.39013536445747       -0.60164690049348       -2.31159379558777
C           -4.40776646847451       -1.94201740457237        0.43964566521975
O           -5.00749719194488       -3.15502650638059        0.41771600028306
C           -4.66665267840130       -4.08605187787120        1.41840691268923
C           -3.43242209013239       -1.54379606254773        1.33326517450861
C           -2.89343180376104       -0.26214986721499        1.27645900483198
C           -2.18866201404290        2.30353932157147       -1.17658121495436
C           -1.26513508559040        1.17565059086466       -1.65868034634513
C            0.00972001968962        1.10646737573256       -0.89216694152849
N            0.62257788560384       -0.03005933490082       -0.57339506501606
C            2.00371955977671       -0.03295050007508       -0.15629173342877
C            2.92958842425090       -0.54150583343795       -1.27823499702881
C            4.35960477828511       -0.43287191031617       -0.83449197455506
C            5.07590180218355        0.72969430178669       -1.04356421230726
C            6.38854828665297        0.84019462236541       -0.60791656440270
C            7.00292529701897       -0.21002724233843        0.05263318017856
O            8.27341307561582       -0.21166490037016        0.52088455132363
C            9.07296975523149        0.92812761532050        0.31253463082989
C            6.27409040589734       -1.40467099537071        0.27715700329299
O            6.95363456962486       -2.38177909281378        0.92675007308531
C            6.31976441813555       -3.61581952733407        1.15300458727448
C            4.96645550006031       -1.49533571998910       -0.16314510884149
C           -0.05280889433328       -1.30688698144677       -0.62363832460415
C           -3.87328852890320        3.07822504770196        0.58294673960338
C           -4.50719033810122        2.77428821481167        1.93826436930121
C           -3.39827628786728        4.52766672156406        0.54876283766426
H           -4.65493866451497        0.94824164480918       -1.32257429797116
H           -6.84390234900013        0.26700014589382       -1.82420468815807
H           -7.16531675070719       -1.17700809557478       -2.81425259527558
H           -5.65609311013361       -0.26431678394376       -3.05252367095940
H           -4.78609534513916       -3.70642475231069        2.43459494244279
H           -5.32550656069781       -4.94665085947006        1.22598297547335
H           -3.63977124838151       -4.39124520646115        1.36216581709230
H           -3.08649543186666       -2.21941567143476        2.09875147571177
H           -2.15900785028465        0.01920891709041        2.01380222889492
H           -3.01437016522695        2.39619527229677       -1.87887760172524
H           -1.64038905162465        3.24630818749207       -1.18778551884174
H           -1.80743406887822        0.23457645155695       -1.61846796461744
H           -1.00091929606611        1.37667859161551       -2.70213840356916
H           -0.68617917564127        1.64201069965534        0.65380860382896
H            0.64191262107892        1.98458618258784       -0.93293889770547
H            2.11535122767243       -0.67186442431480        0.72523847023008
H            2.30340000365180        0.97946435835790        0.11306808702985
H            2.76671897036168        0.06649881821210       -2.16911560030506
H            2.68325429119453       -1.57809455000676       -1.51568322038286
H            4.62260012933544        1.55958208490968       -1.56437956850831
H            6.92578957240839        1.75558946856675       -0.79628169004601
H            8.65478537403154        1.80911831546301        0.81033307756063
H            9.20391547119734        1.13932303627010       -0.75369546208268
H           10.03880574357633        0.68986915557805        0.75406896951747
H            7.06037474227001       -4.23585956008543        1.65508164108803
H            5.44334623326170       -3.50667098511201        1.80046410267180
H            6.02397915456205       -4.09610867317231        0.21472178230540
H            4.40475554748748       -2.40301800607831       -0.00578209704137
H           -0.22026699575401       -1.62282963498169       -1.65776112759213
H           -1.01756103358779       -1.24957980351315       -0.11476138005150
H            0.55889302962881       -2.05578662735159       -0.12786244588572
H           -4.64369051692804        2.95473660825297       -0.18639885137101
H           -3.77952545571530        2.90422753144863        2.72971230027524
H           -4.88736366717657        1.75600964335051        1.97235564364596
H           -5.33652946996089        3.45550628088362        2.11373346759994
H           -2.61037939866490        4.68769706291458        1.27777453853745
H           -3.04034688785390        4.81601761425633       -0.43665700295186
H           -4.23043930324624        5.18055954103819        0.80235490011883
H           -0.62202305128470        2.78342371302013        2.75116818287826
72
 energy: -103.315137194901 gnorm: 0.033088910443 xtb: 6.6.1 (8d0f1dd)
N           -1.50839934238603        2.79099835426748        2.24770542312202
C           -1.57112399903532        2.15165627304994        1.17170852627670
C           -2.74952899025899        2.06056059937421        0.25131171957726
C           -3.32287751570347        0.65119676898398        0.32868367713732
C           -4.30561523375240        0.24930647519246       -0.57919972311085
C           -4.85489541408632       -1.01846155266261       -0.53610679106566
O           -5.81995451369653       -1.48385151336692       -1.37295752761587
C           -6.38872127035394       -0.60239707116142       -2.31054417443872
C           -4.41018090325769       -1.93848329551587        0.44319657133130
O           -5.00889121553290       -3.15817884674645        0.42236329975888
C           -4.66261874892667       -4.08973454087805        1.41724082448200
C           -3.43493400824082       -1.53880552388154        1.33581815512256
C           -2.89877538043439       -0.25654346331856        1.27993894668091
C           -2.19075751288846        2.30213858902704       -1.17510430718893
C           -1.26092762350650        1.18470384866945       -1.67431494855406
C            0.01143977303653        1.12256233959542       -0.89742968475332
N            0.63317688636064       -0.04707482130372       -0.56409784529974
C            2.00831164232847       -0.04537238164630       -0.15816537891971
C            2.93840072287720       -0.54586322719081       -1.28145326847637
C            4.36628902762315       -0.43786849179489       -0.84499400441883
C            5.08076533775992        0.72746296687574       -1.04772048544234
C            6.39088073397155        0.83994185791983       -0.60633663563034
C            7.00428295911494       -0.21042772086446        0.05439457619009
O            8.28048647963985       -0.21284630961588        0.52357303863855
C            9.07431311961144        0.92826480163611        0.31322187179737
C            6.27638546178690       -1.40359048727404        0.27778778503192
O            6.95787398084586       -2.38357066922360        0.92977422114063
C            6.32013571014794       -3.61524864921036        1.15352569975681
C            4.97203212006300       -1.49681326239252       -0.16768583483463
C           -0.04930604527249       -1.31317880331959       -0.62226228207280
C           -3.87938592510891        3.07731225011380        0.57986138472261
C           -4.51084909749370        2.77580865243435        1.93719156655648
C           -3.40188849771923        4.52684605623987        0.54899330688355
H           -4.65276849890463        0.94742286405861       -1.32270394793626
H           -6.84134852292158        0.26724476463334       -1.82321954205280
H           -7.16444193785411       -1.17612083711566       -2.81504039566110
H           -5.65330819394381       -0.26472825628379       -3.04918441770308
H           -4.82000474586480       -3.70037609477852        2.42878884881337
H           -5.31893904170219       -4.94382154321617        1.24046200694081
H           -3.62183016001333       -4.40315569248394        1.34029137918621
H           -3.08232561771842       -2.21618739298472        2.09736897405580
H           -2.15682361062885        0.02428022200091        2.01054840151486
H           -3.02021706418378        2.40001652355174       -1.87625451693036
H           -1.63913862400154        3.24341867234072       -1.18371620989633
H           -1.79737991016694        0.23888231042520       -1.62486538614332
H           -1.02745927426801        1.38618708569064       -2.72921735356640
H           -0.69514950406117        1.63715646846686        0.68685301412713
H            0.65562416930597        1.98820081294486       -0.96576241340666
H            2.12705313780966       -0.67960267139114        0.72617978828737
H            2.29982689005576        0.97171836504366        0.11063345357681
H            2.76585397489169        0.06568315574701       -2.16839985109081
H            2.68652958554807       -1.58036912689780       -1.51827362748766
H            4.62442345182107        1.55859801813583       -1.56443740682181
H            6.92781674550047        1.75621931784389       -0.79285613271282
H            8.65409822504929        1.80931788301647        0.80982720052068
H            9.20296730606016        1.13946570738197       -0.75358860246987
H           10.04166327050663        0.69331442736363        0.75371968234263
H            7.05864386089028       -4.23790961034454        1.65600966569350
H            5.44205431025808       -3.50530943675061        1.79912950075935
H            6.02311190739454       -4.09410020411249        0.21437690481039
H            4.40726181812182       -2.40225377436066       -0.00706965485721
H           -0.21963174354400       -1.62913523204650       -1.65732635146677
H           -1.01536865731853       -1.24993630582333       -0.11432584528643
H            0.55804728688216       -2.06498935350427       -0.12495748448300
H           -4.65095984461628        2.95744777266894       -0.18984629990598
H           -3.77466250550076        2.90363771790678        2.72360016570113
H           -4.88845719537729        1.75659033624778        1.97151047653810
H           -5.34016399883733        3.45704819179471        2.11651623916036
H           -2.61076270057086        4.67937455910521        1.27687682350534
H           -3.04049103241263        4.81235633322338       -0.43587329129792
H           -4.23170409622989        5.18348114848285        0.80293007997328
H           -0.63178433348441        2.78602494011927        2.75931737372625
72
 energy: -103.315601894297 gnorm: 0.018917840811 xtb: 6.6.1 (8d0f1dd)
N           -1.49274494311983        2.78038251593927        2.23722532997958
C           -1.55429216021344        2.14477458004065        1.15438222254589
C           -2.74560774967945        2.05901711792116        0.24699916426746
C           -3.31510295506417        0.64745249290387        0.32180400913066
C           -4.30130917365448        0.24678192473483       -0.58249252107142
C           -4.85086581477096       -1.02007024812142       -0.53964754634408
O           -5.82119418770211       -1.48459896629624       -1.37649154549360
C           -6.39029544594382       -0.60266120360106       -2.31150258254475
C           -4.40708757578492       -1.93937466687189        0.43845128613014
O           -5.01203844562560       -3.15940478389759        0.42490714505794
C           -4.66560950863293       -4.08935746192279        1.41974231891882
C           -3.43158360032902       -1.54273545651215        1.33092872462175
C           -2.89299863585370       -0.26236284380940        1.27359309627365
C           -2.19150898720397        2.30422510982572       -1.18072416695921
C           -1.26258610789576        1.18044502074695       -1.66558728340875
C            0.00284062773326        1.13193328284384       -0.88428786003360
N            0.63289312192662       -0.05197841971883       -0.55112359430552
C            2.00255682322873       -0.03768045914206       -0.15269897074361
C            2.93360005252371       -0.54003288876037       -1.27562706846172
C            4.35763904255148       -0.43303635714031       -0.83676504089585
C            5.07383316203313        0.73092918382865       -1.04261841494978
C            6.38569248537957        0.84118140720861       -0.60715929219537
C            6.99770433202087       -0.20979238840023        0.05229880143650
O            8.27778922144324       -0.21385390956169        0.52093352654634
C            9.07109323714429        0.92623646257110        0.31228895051787
C            6.26985948303796       -1.40080923851799        0.27796510714078
O            6.95562041800565       -2.38330952915886        0.92747667595396
C            6.31995899929137       -3.61499824434717        1.15269420080153
C            4.96420192440752       -1.49276896060422       -0.16181396417114
C           -0.05145897734898       -1.31006043944359       -0.62416938854885
C           -3.87102295617566        3.07549316627866        0.58299407558840
C           -4.50723481941584        2.77428187885018        1.93902303123337
C           -3.39888402163027        4.52838258500618        0.54979925905690
H           -4.65200719783094        0.94714539913127       -1.32282499804831
H           -6.84363137114456        0.26690520699511       -1.82398113482429
H           -7.16691159581490       -1.17676065895497       -2.81460730491226
H           -5.65772978555234       -0.26410907120423       -3.05239611800245
H           -4.81287013397353       -3.69842152749544        2.43286224726198
H           -5.31957773631448       -4.94150213345415        1.24385313791879
H           -3.62007735623293       -4.40437629638788        1.33923892137939
H           -3.08597033665840       -2.21940330326590        2.09696359763284
H           -2.15688397865126        0.01893935403608        2.01023573310138
H           -3.02019752739309        2.39875378738812       -1.88394018184076
H           -1.63856034974324        3.24539646499317       -1.19017104150730
H           -1.80013192906108        0.23282509662151       -1.61506788143854
H           -1.01468033519424        1.37566837347717       -2.71714390881702
H           -0.68658127701989        1.64255268768410        0.66200764593966
H            0.64546883356612        1.99499962138761       -0.93330327806868
H            2.12203945650711       -0.66922602047004        0.73321204286000
H            2.29360082933332        0.98198414108566        0.11528279334196
H            2.76194002618381        0.07020934779374       -2.16404517905488
H            2.67866956169104       -1.57392408342411       -1.51134674640641
H            4.61804249373424        1.56044949190242       -1.56256053968012
H            6.92423049954098        1.75583008450259       -0.79765600181878
H            8.65321754237548        1.80816729183753        0.80980341440017
H            9.20234354546267        1.13911203387561       -0.75412285145889
H           10.03762284237506        0.68889959923202        0.75354859161881
H            7.06108914116491       -4.23556259707598        1.65410599286141
H            5.44302712567969       -3.50734840510373        1.80051307624419
H            6.02230493737836       -4.09609361241506        0.21455864495580
H            4.39943759265513       -2.39891348681699       -0.00327001075881
H           -0.22132232114521       -1.62127367763965       -1.66146211586995
H           -1.01885342595304       -1.25095287365282       -0.11666873634916
H            0.55741462134354       -2.06165084246554       -0.12900663938867
H           -4.64253897706889        2.95495178691391       -0.18630212171286
H           -3.77593904779266        2.90362646146573        2.73042108435373
H           -4.88484960770739        1.75499757186314        1.97278696861418
H           -5.33753970208228        3.45523231231710        2.11298065476811
H           -2.60841819646604        4.68721111116592        1.27723519466084
H           -3.03924962527252        4.81494237542897       -0.43558093122936
H           -4.23187519413183        5.18099017831532        0.80258675028900
H           -0.60091106198574        2.76263981565287        2.72840249435272
72
 energy: -103.316164943404 gnorm: 0.010584281341 xtb: 6.6.1 (8d0f1dd)
N           -1.51691216645165        2.77988869438652        2.24604196545811
C           -1.56140049663890        2.15218769531041        1.15808220742575
C           -2.74989564950020        2.05983342362439        0.24820414979701
C           -3.31935688371149        0.64879101748629        0.32569746875881
C           -4.30474479065425        0.24861350913404       -0.57954370493538
C           -4.85280860054248       -1.01837128635853       -0.53640108091877
O           -5.82113604504792       -1.48350140454401       -1.37493628512910
C           -6.38847174921768       -0.60205874503216       -2.31099527810822
C           -4.40745076923997       -1.93774162744904        0.44022728547238
O           -5.01048276451720       -3.15816201748377        0.42296433768447
C           -4.66951996366926       -4.08899397375906        1.41866709942932
C           -3.43377012655946       -1.54148721193780        1.33509089422245
C           -2.89709177575855       -0.26043994988046        1.27866716971065
C           -2.18959986555563        2.30458874151840       -1.17637661413693
C           -1.26339018622626        1.17879680440031       -1.66173304929238
C            0.00450385987383        1.12788155782007       -0.88980278741492
N            0.63444281214567       -0.05251745484281       -0.56156719972846
C            2.00431181385034       -0.03893707806135       -0.16295588527027
C            2.93863512343245       -0.54451626518148       -1.28264601739636
C            4.36207298788076       -0.43610608124201       -0.83924635250331
C            5.07894641461985        0.72777684011322       -1.04509793885557
C            6.39032174588864        0.83936279400127       -0.60794918539527
C            7.00165124534873       -0.21092564243266        0.05235521052039
O            8.28072539271813       -0.21245399875706        0.52305504911794
C            9.07334200546376        0.92786107175546        0.31362140474287
C            6.27483027329050       -1.40274440320418        0.27600565915190
O            6.95843302890093       -2.38462993347103        0.92831650135511
C            6.32075428354353       -3.61514310477118        1.15338818123116
C            4.96971532895846       -1.49619308265073       -0.16566612096557
C           -0.05167389310127       -1.30878163640092       -0.62537957614039
C           -3.87473277016649        3.07675053038259        0.58213876113549
C           -4.51043213353949        2.77520414435406        1.93820008265659
C           -3.40014617336224        4.52872468884278        0.54857350588791
H           -4.65545756616333        0.94858394358168       -1.32055209261959
H           -6.84327301254102        0.26756475906881       -1.82473159907719
H           -7.16412921314556       -1.17650187953969       -2.81517795030679
H           -5.65466399777530       -0.26387794600412       -3.05112896318328
H           -4.80339911815756       -3.70418572648411        2.43448710504775
H           -5.31972872873427       -4.94434145508340        1.23093871409728
H           -3.62598298954875       -4.39800950131460        1.35122192141299
H           -3.08721536690312       -2.21885764017411        2.09998288759185
H           -2.16115814031360        0.02126082658411        2.01550820813250
H           -3.01695561429278        2.39886102102646       -1.87950346336275
H           -1.63840441004930        3.24657002386941       -1.18469191588279
H           -1.80452486798622        0.23334652244015       -1.61792553718111
H           -1.00808339589394        1.37784975478635       -2.70953305869299
H           -0.69188436416885        1.64741772796744        0.66852754404119
H            0.65102619584669        1.98626955236082       -0.94230810263360
H            2.12201775816172       -0.67351164282440        0.72161744996772
H            2.30218203220011        0.97781708010726        0.10783437875407
H            2.77031551446595        0.06433481370973       -2.17263902667144
H            2.68583700936023       -1.57918215298060       -1.51926058979517
H            4.62429664501976        1.55707768694104       -1.56624887011711
H            6.92767130097489        1.75531738045518       -0.79531803528843
H            8.65532625453002        1.81024316835124        0.81027281335172
H            9.20522456881568        1.13994045508551       -0.75295326941303
H           10.04020660740211        0.69191691983825        0.75508234096474
H            7.05980387317612       -4.23660596438402        1.65665753473973
H            5.44283392096048       -3.50587579896570        1.79959912926437
H            6.02460290495421       -4.09649410949879        0.21494204113506
H            4.40705381584088       -2.40406697052853       -0.00942511683614
H           -0.22323905660181       -1.62748027764051       -1.65967762972983
H           -1.01728529058867       -1.24816978734501       -0.11478244905850
H            0.55837025257532       -2.05771127885009       -0.12710588141543
H           -4.64583453705904        2.95565917376631       -0.18746078873808
H           -3.77904743169201        2.90397922046306        2.72902292015602
H           -4.88969555643960        1.75656140122201        1.97217390205230
H           -5.33902470684086        3.45720212541684        2.11373841913191
H           -2.61051473096390        4.68625053388323        1.27699535981180
H           -3.04052011409569        4.81544469490524       -0.43682416680711
H           -4.23200218508204        5.18192675218345        0.80189327334283
H           -0.62941592821908        2.77646124604677        2.74369165668859
72
 energy: -103.316193493325 gnorm: 0.009342655437 xtb: 6.6.1 (8d0f1dd)
N           -1.50537463326717        2.78326735582474        2.24514478418925
C           -1.55673146743159        2.15147047477603        1.16119027240166
C           -2.74681149590336        2.05956134512102        0.25048337250489
C           -3.31986881877750        0.64989816675749        0.32654697043204
C           -4.30384889395903        0.24907513665741       -0.58050826402838
C           -4.85254769121406       -1.01809914534376       -0.53656329830910
O           -5.82051411943955       -1.48353904286721       -1.37444078914798
C           -6.38893723170832       -0.60248835080750       -2.31008864503711
C           -4.40716277139110       -1.93746248340105        0.43999764643383
O           -5.00871230801513       -3.15811725411552        0.42069863676586
C           -4.66836342938242       -4.08807458758683        1.41697277658549
C           -3.43203502118540       -1.54096521566194        1.33394182816434
C           -2.89555691891490       -0.25966780497923        1.27755034227739
C           -2.19037361570600        2.30199508843628       -1.17662493094287
C           -1.26298665644730        1.18070780490362       -1.67110667758474
C            0.00630665280201        1.12582929722660       -0.90003080888785
N            0.63270067239713       -0.04960239623691       -0.56376889225662
C            2.00113539235595       -0.03878264526884       -0.15516484500529
C            2.93479096746100       -0.54240319237949       -1.27623973969277
C            4.36041555732363       -0.43458247336415       -0.83778748645924
C            5.07726112587578        0.72929862832377       -1.04390475328748
C            6.38863999788461        0.84092695727307       -0.60619365766214
C            7.00000877253964       -0.20993174948631        0.05359968890944
O            8.27887744547503       -0.21228118892068        0.52272864817849
C            9.07191446758687        0.92735508259125        0.31200729238413
C            6.27311991533054       -1.40162530100090        0.27756850948539
O            6.95604521381246       -2.38357835118101        0.92937098485565
C            6.31880473862157       -3.61454408726729        1.15289482446275
C            4.96779476717268       -1.49465661711425       -0.16403764242552
C           -0.05061787743894       -1.30863995425020       -0.62380037015800
C           -3.87400961539795        3.07580819922332        0.58152078051137
C           -4.50795151416921        2.77416873967961        1.93794199272876
C           -3.39914430214006        4.52696763495187        0.54939188863565
H           -4.65184265002266        0.94755266032553       -1.32408663115243
H           -6.84249183903002        0.26730379997557       -1.82306299076591
H           -7.16551917340380       -1.17635281508533       -2.81370635192456
H           -5.65539384182162       -0.26458375765838       -3.05072389991179
H           -4.80399107958829       -3.70084118666333        2.43121469018511
H           -5.32210536809279       -4.94296291944787        1.23483576440073
H           -3.62713900892864       -4.39949513484737        1.34946048791061
H           -3.08125019683336       -2.21899532994896        2.09583993093931
H           -2.15410059197932        0.02100602896915        2.00919939491241
H           -3.02022913907498        2.39752579446699       -1.87635565160380
H           -1.64041544184909        3.24414778084402       -1.18683589665397
H           -1.80245217170264        0.23594443039237       -1.62611915292525
H           -1.01913634602906        1.38313416643450       -2.72200631411333
H           -0.69186863265146        1.63301876367968        0.67456503001995
H            0.65420877624082        1.98376818035816       -0.95787682129191
H            2.11996716925202       -0.67513610410574        0.72934047543074
H            2.29894605961585        0.97666915967105        0.11704497091995
H            2.76273778459142        0.06808559426408       -2.16436083325823
H            2.68210953351830       -1.57711789418955       -1.51349910765782
H            4.62146715864061        1.56026000181843       -1.56160571489792
H            6.92579404155163        1.75696201895803       -0.79323133701352
H            8.65405764974495        1.80931906871236        0.80939604241098
H            9.20142768096383        1.13935546794021       -0.75486838036972
H           10.03967797232779        0.69152376742795        0.75181098097699
H            7.05832255725383       -4.23717483756708        1.65414225624917
H            5.44155844072814       -3.50626033121158        1.80004477655271
H            6.02157904267810       -4.09384516540465        0.21382361419053
H            4.40345811657870       -2.40057387384702       -0.00330556466074
H           -0.21823515727555       -1.62844076161111       -1.65802355131778
H           -1.01773850007358       -1.24991038298132       -0.11638789746814
H            0.55715420990750       -2.05979336095896       -0.12430681081294
H           -4.64589809562369        2.95537687925230       -0.18784541526674
H           -3.77447433189934        2.90342313489730        2.72626474061838
H           -4.88557048227911        1.75503855647443        1.97212534568576
H           -5.33698675613138        3.45518799849410        2.11574700014291
H           -2.60926362639707        4.68156656798933        1.27795352302568
H           -3.03929576330555        4.81325347482869       -0.43586881832065
H           -4.23006409424708        5.18113810893724        0.80361865544851
H           -0.61827336661987        2.77917564801578        2.74429797278713
72
 energy: -103.316360124710 gnorm: 0.004584138677 xtb: 6.6.1 (8d0f1dd)
N           -1.50610327487760        2.78271011248405        2.24503700809899
C           -1.55864104135268        2.14999162627031        1.16172483753150
C           -2.74864300125756        2.05995431211413        0.24998126116900
C           -3.32012033929716        0.64929382207105        0.32520577102657
C           -4.30411656731923        0.24786880567951       -0.58141908549926
C           -4.85304647344770       -1.01940137190891       -0.53733175010250
O           -5.82127808262492       -1.48450298644650       -1.37555913949782
C           -6.38916047565863       -0.60304700164474       -2.31108145491971
C           -4.40900106264352       -1.93823704405724        0.44033122782045
O           -5.01012180270548       -3.15956211718016        0.42222056684643
C           -4.66671106287359       -4.08899346244948        1.41762611907171
C           -3.43431523329161       -1.54097418899148        1.33439962439505
C           -2.89712828524773       -0.25994850819970        1.27718580225997
C           -2.19075318460602        2.30330825373305       -1.17677313974802
C           -1.26152187584657        1.18107811286981       -1.66574625647104
C            0.00618317935208        1.12746793089809       -0.89193857803517
N            0.63410869509093       -0.04995508256736       -0.55909247990367
C            2.00385516435477       -0.03943403259937       -0.15679939334440
C            2.93630518683666       -0.54300992766919       -1.27962548841829