72
 energy: -99.698222474209 xtb: 6.6.1 (8d0f1dd)
N           -1.71905815558782        2.89217646461858        2.34740701311475
C           -1.67436856994996        2.15342300724981        1.32958310576428
C           -2.77845003866085        2.07543965300124        0.30677030087917
C           -3.36390745229400        0.68016462117298        0.32780847771331
C           -4.30361961658470        0.26268344688699       -0.61542622132596
C           -4.88452886550048       -0.99907962820092       -0.58131250022948
O           -5.82484824254798       -1.42684110051808       -1.48304733084199
C           -6.29489032582141       -0.53399053242102       -2.46925011692565
C           -4.47887305911001       -1.88625672515634        0.44716757497603
O           -5.04098484681545       -3.11512258559002        0.61422737246385
C           -4.49939359084342       -4.03093877527506        1.56519834690187
C           -3.52053832356410       -1.46808449778607        1.34363909030085
C           -2.98143582944099       -0.20607301667742        1.31132949425509
C           -2.12512916725149        2.33714157241136       -1.07332438423082
C           -1.25957851585811        1.18183488147006       -1.61782119369614
C            0.04156842086854        1.06827513954721       -0.91897111546650
N            0.62522164783841       -0.11905642422332       -0.51707436370940
C            2.00904504425936       -0.13627716292719       -0.15237723290821
C            2.95267772061211       -0.58282862725258       -1.29550255785010
C            4.38270971421638       -0.46709578353010       -0.86578354578619
C            5.09704653424193        0.69708430108125       -1.08297472391611
C            6.41212336264074        0.81687148680428       -0.65658776677162
C            7.03425414332033       -0.22753260457116        0.00389851053353
O            8.32025162466261       -0.22560849775194        0.45998244978568
C            9.10764286525413        0.91575594754260        0.24107715378910
C            6.31151099442799       -1.41848412149470        0.24237618049664
O            7.00507239369253       -2.39286272386094        0.89758824034754
C            6.36856597939764       -3.61643777259175        1.15779156252878
C            5.00290273641277       -1.51967725602908       -0.18984503447802
C           -0.04847685863780       -1.37750839607051       -0.67850435312825
C           -3.93737180021646        3.07582004631373        0.56472972214512
C           -4.66195585290631        2.77436064226629        1.87746058707664
C           -3.47296316740443        4.52869646898459        0.55412718840027
H           -4.59353702366607        0.95577492109205       -1.39051330483268
H           -6.75930298763031        0.35702646273592       -2.03158884330551
H           -7.05223818015451       -1.08258374498329       -3.03056697313070
H           -5.50249046565046       -0.22352001344634       -3.16128334766777
H           -3.89180288736270       -3.68097169794675        2.50261171851061
H           -5.35985692127641       -4.70109436764934        1.67158329900597
H           -3.72199757546100       -4.62888957786700        1.11082627264997
H           -3.20623399465277       -2.13638248074973        2.12250410341287
H           -2.28203977470113        0.06075298408253        2.08294008976309
H           -2.91635228904092        2.54656573696791       -1.79472977722244
H           -1.49983398657251        3.22696910565360       -0.99683459810616
H           -1.81930855247770        0.24875973333605       -1.56412816971324
H           -1.09109153250221        1.39877733646068       -2.68572897217305
H           -0.80623769418536        1.53737905555971        1.04521836717882
H            0.67371996595703        1.93725477464102       -0.87490617241608
H            2.14147945780823       -0.81021792111110        0.70161549132125
H            2.29869462613558        0.86886358836560        0.16211255643528
H            2.76394606534336        0.05703575261460       -2.15918894926978
H            2.71823168364299       -1.61312845011475       -1.56784900827669
H            4.63324215682300        1.52379098226729       -1.60026106286421
H            6.94373389247451        1.73458332012951       -0.85250899247075
H            8.69049868135562        1.79902578711937        0.73714327035530
H            9.23132696717542        1.12524137039586       -0.82713756106927
H           10.07925182168269        0.68585822033264        0.67619427404329
H            7.11193809719321       -4.22749198484396        1.66808395515409
H            5.49678248040629       -3.49112214047019        1.80954500643215
H            6.06157852152112       -4.11949365812322        0.23424155034175
H            4.44298183139282       -2.42630720429173       -0.01820322577988
H           -0.20286127414959       -1.64472834954156       -1.73138535529441
H           -1.02268326045786       -1.34341567614438       -0.18279493644473
H            0.54888607594124       -2.15701364517864       -0.20806244551287
H           -4.65575602293567        2.94127380772192       -0.25316161466296
H           -3.98651772215570        2.92386676194399        2.71312052561005
H           -5.02666102032600        1.74979155118350        1.89933741102254
H           -5.51258596367737        3.44351519697462        1.98886954730001
H           -2.72813080685006        4.68179197380075        1.32799277270845
H           -3.05043306159184        4.80440955631471       -0.40862799861759
H           -4.32042256902724        5.18040072242833        0.75243654324928
H           -0.89990273775064        2.85796868347801        2.95139635629628
