72
 energy: 0.000000000000 xtb: 6.6.1 (8d0f1dd)
N           -1.47310934822924        2.74401318561852        2.22063942287560
C           -1.55658894218425        2.16490305624665        1.13274284460745
C           -2.74549225258129        2.05621251263064        0.23826250649470
C           -3.31377583855761        0.64333417511334        0.32332515650284
C           -4.30230195924506        0.24487112428158       -0.58026167086503
C           -4.85238808050968       -1.02286499940159       -0.53363593669082
O           -5.81420026757557       -1.48606047972767       -1.36157895357670
C           -6.39655692584623       -0.60827005826649       -2.29568495601309
C           -4.39972542350640       -1.94646120241305        0.44396933240983
O           -4.98748357557592       -3.16146026488900        0.41085995818162
C           -4.66362171172287       -4.10093865802695        1.40909140816864
C           -3.42072545213514       -1.54561399150247        1.33436558640148
C           -2.88302826362110       -0.26315802838497        1.27400162590187
C           -2.19303818453636        2.30467021687947       -1.18742988123374
C           -1.26651549989641        1.17243380322503       -1.65249445018642
C            0.01082525039567        1.09745464658138       -0.89354811789923
N            0.61779399208289       -0.02034948241203       -0.57705527866251
C            2.00145228921113       -0.02376006609561       -0.15611401051620
C            2.92554961797610       -0.53865287672537       -1.27700100652360
C            4.35756883501756       -0.43050761225877       -0.83075552032494
C            5.07346182539911        0.73206415878124       -1.03980975472950
C            6.38628045899965        0.84224449235903       -0.60344828301384
C            7.00047329721665       -0.20824758267940        0.05722314949100
O            8.26703733840855       -0.21011315050632        0.52410948507466
C            9.06912311989339        0.92943609656965        0.31863060963839
C            6.27040022445068       -1.40439766990411        0.28033468609137
O            6.94830004375713       -2.38012947787858        0.92752007684741
C            6.31537376337817       -3.61583233633369        1.15217722400438
C            4.96302840674480       -1.49347485723979       -0.16064431849589
C           -0.05511211878686       -1.29906259857679       -0.62085692079872
C           -3.86758072907722        3.07992629005348        0.58498065642721
C           -4.49286201346546        2.77383518785172        1.94313307512182
C           -3.39165211343248        4.52917708609625        0.54797528556046
H           -4.66030069703099        0.94509076131725       -1.31640581036773
H           -6.85037992114187        0.25803164586058       -1.80468862056629
H           -7.17287509152171       -1.18600121846629       -2.79318183475679
H           -5.66836870040540       -0.26952968819383       -3.04040283452035
H           -4.88416765986127       -3.71589494995018        2.40913564538747
H           -5.29223619720187       -4.96637504833431        1.20969248126828
H           -3.61139846644506       -4.39919876145526        1.35529370415983
H           -3.07077825100221       -2.21868786295666        2.10002682176568
H           -2.14562774333496        0.02067850888151        2.01001363031684
H           -3.02188903413801        2.38238034416975       -1.88813562572432
H           -1.65198546223364        3.25146730843841       -1.20556295755141
H           -1.81103391047759        0.23006526775522       -1.62116316669324
H           -0.99335697743926        1.37490224954061       -2.69443281971844
H           -0.67628070635666        1.65183902374723        0.61785732877701
H            0.63525847086258        1.98466388206871       -0.92314029755375
H            2.11132572081740       -0.65949698961381        0.72532619960637
H            2.30680494458141        0.98978260887088        0.11078973822125
H            2.76694224489122        0.06750735773687       -2.17075272340394
H            2.67954606229959       -1.57455642411728       -1.51167757545099
H            4.62170041431221        1.56295626549351       -1.56123593485311
H            6.92357738865082        1.75715832247601       -0.79119604059515
H            8.65159193263071        1.81001840117181        0.81701562739969
H            9.20136256512460        1.14042868409438       -0.74698998879646
H           10.03428931104811        0.69003246578081        0.76064945022918
H            7.05567240429544       -4.23621211097668        1.65347581279537
H            5.43848051513375       -3.50813590722545        1.79970582482858
H            6.02060097762632       -4.09420535105165        0.21253284608183
H            4.40102799328555       -2.40127288651695       -0.00490198294521
H           -0.22071301762289       -1.61775598610935       -1.65116024301020
H           -1.01972267469312       -1.24102728946113       -0.10935207845464
H            0.55899959333766       -2.04486104898380       -0.12333731565713
H           -4.63991918782192        2.95501120214274       -0.18098089750912
H           -3.76095251366987        2.90314731895452        2.73380846416528
H           -4.87457659255110        1.75695657819473        1.97884621460846
H           -5.31925601899505        3.45579242388173        2.12325583951056
H           -2.60025614255587        4.69225089676674        1.27368930043085
H           -3.03987434616939        4.81897697030947       -0.43870979129779
H           -4.22191779840287        5.18069696155015        0.80616701440619
H           -0.59832439338922        2.77744720721660        2.72959009765665
72
 energy: 0.785860440033 xtb: 6.6.1 (8d0f1dd)
N           -1.51632858166835        2.77963507772139        2.25266340655773
C           -1.57488229986581        2.15189283779901        1.17224543893667
C           -2.75102396996618        2.05742653528975        0.25282495618466
C           -3.32447291236107        0.64779155029376        0.32636603900062
C           -4.30481203398096        0.25034532815300       -0.58607670757044
C           -4.85838568329134       -1.01548764981685       -0.54526366052759
O           -5.81989851659670       -1.47715594341770       -1.38509846788510
C           -6.38460189762416       -0.59584957391951       -2.32530978160672
C           -4.41655900351279       -1.93754924237577        0.43564737974007
O           -5.02236329800932       -3.14991175728260        0.42290966550914
C           -4.67024219147645       -4.08780094218031        1.41597302411262
C           -3.44380800354525       -1.54233184096624        1.33224733706355
C           -2.90528630031503       -0.26160375731904        1.27900551516297
C           -2.18512773489322        2.30350416152176       -1.16903243349524
C           -1.26381071053807        1.17782474882836       -1.66082135458885
C            0.00943105882796        1.11028488895783       -0.89098330914826
N            0.63095776271386       -0.05021777928968       -0.56686363905925
C            2.00555160804490       -0.04612153458704       -0.15659446577566
C            2.93525327439179       -0.54608122936845       -1.27999655289726
C            4.36315186440200       -0.43735682864055       -0.84040651300650
C            5.07784062905912        0.72744962701366       -1.04665305345985
C            6.38942835901131        0.83933029241933       -0.60990190059350
C            7.00395774732374       -0.21080879944589        0.05033868531671
O            8.27864483177207       -0.21293917660232        0.51724554933135
C            9.07513013666267        0.92733590951574        0.30865758207243
C            6.27569024886399       -1.40488181142360        0.27552780185527
O            6.95829337201592       -2.38309710193572        0.92556482210935
C            6.32323407336801       -3.61582479827678        1.15358432610438
C            4.97009463827114       -1.49742458090120       -0.16573548453815
C           -0.05104041663299       -1.31572254785635       -0.62805845538025
C           -3.87955659240746        3.07617436371898        0.58087797621296
C           -4.51813267440071        2.77426148975127        1.93447275774751
C           -3.40386574796634        4.52654462593390        0.54931044471452
H           -4.65023105227158        0.95111738873895       -1.32833369702471
H           -6.83874239000255        0.27440041017063       -1.84056355938312
H           -7.15897284535252       -1.16962240828088       -2.83151814262629
H           -5.64669420184353       -0.26034209424307       -3.06212833330480
H           -4.58647901583267       -3.68776322722145        2.48528778386161
H           -5.33047104381896       -4.94530081011596        1.22321573898016
H           -3.64608801191726       -4.38819821332628        1.36940510240796
H           -3.09884885160521       -2.22010059186306        2.09779502546748
H           -2.17011120686750        0.01758680186984        2.01744405452367
H           -3.00997364112637        2.40359410418756       -1.87423455061639
H           -1.63057649998032        3.24336565644024       -1.17321216319480
H           -1.80758422942588        0.23446230286685       -1.61682622882320
H           -1.01747328310637        1.38019776457847       -2.71097999799749
H           -0.69520072010939        1.63179027669682        0.68760616143307
H            0.64404857862017        1.98399820453605       -0.93180199983266
H            2.11808745344298       -0.68259283137367        0.72486600894477
H            2.30098265399500        0.97014511418232        0.11598815734482
H            2.76677301380040        0.06570587746664       -2.16793147555906
H            2.68551429658542       -1.58025078607996       -1.51842605031134
H            4.62301999290255        1.55772529857115       -1.56608798895937
H            6.92669650786818        1.75479775030877       -0.79881461914804
H            8.65690059744685        1.80859995340889        0.80623467410426
H            9.20558337252731        1.13865228611992       -0.75768693019982
H           10.04137291176057        0.68953674219022        0.74981065786850
H            7.06397091169405       -4.23535534481688        1.65618256083118
H            5.44649334631213       -3.50584929715935        1.80109983345713
H            6.02599239943180       -4.09738488239440        0.21595678381553
H            4.40686304609291       -2.40417301318493       -0.00631927730912
H           -0.22002011380902       -1.62642456599026       -1.66340236098388
H           -1.01711224222037       -1.25500055613855       -0.11846378389631
H            0.55872127608690       -2.06629660238013       -0.13366575563122
H           -4.64627916701251        2.95392795746388       -0.19231787984331
H           -3.78985747674307        2.90494500202604        2.72848131312625
H           -4.89585019623762        1.75530163825304        1.96829212270094
H           -5.34859256688261        3.45502908695125        2.10620204709727
H           -2.61679040755519        4.68595211041858        1.28050693989808
H           -3.04090761427930        4.81343743916402       -0.43454837871048
H           -4.23646363993912        5.18011658945389        0.79937722106054
H           -0.64226217942486        2.78792669926640        2.76733059069268
72
 energy: 15.404059160305 xtb: 6.6.1 (8d0f1dd)
N           -1.57426791601262        2.81949651791736        2.28189576448025
C           -1.59599765770702        2.14222503360474        1.21773066796176
C           -2.75796195027212        2.05727058102488        0.26974704988397
C           -3.33748386453835        0.65123975937004        0.32792624751735
C           -4.30805522025013        0.25563935688953       -0.59582544710645
C           -4.86802752069304       -1.00748419751476       -0.56017279676461
O           -5.82637026509109       -1.46462249647774       -1.41633516935135
C           -6.36709319109755       -0.57884966491657       -2.36570755737042
C           -4.44215343943282       -1.92516397432713        0.43014189088534
O           -5.06008314494842       -3.13637444649742        0.45836654407826
C           -4.65740220331609       -4.06392371622441        1.44175355746774
C           -3.47302039826360       -1.53630715558894        1.33018826938451
C           -2.93282516305812       -0.25958486532501        1.28488922560278
C           -2.17290579976896        2.30722746495222       -1.14495345496593
C           -1.26208379737203        1.17875659126666       -1.65533468815804
C            0.01072406002228        1.11333879666895       -0.88761014285848
N            0.63849691617797       -0.07679428873991       -0.55991902860067
C            2.00624356913874       -0.06894492490266       -0.15746966750846
C            2.94418580818429       -0.55527609875591       -1.28312012491590
C            4.36920734886228       -0.44519374852559       -0.84814409794191
C            5.08352618188492        0.72008702612106       -1.05521251636540
C            6.39525076694416        0.83455542878188       -0.61960230470281
C            7.00965623455181       -0.21447400409517        0.04013627666148
O            8.29140872522934       -0.21611031502591        0.50575170548197
C            9.08275061223573        0.92444467952081        0.29420296933504
C            6.28405549051488       -1.40618901830470        0.26820105119285
O            6.97083682918286       -2.38615220411700        0.92121163533583
C            6.33396256980724       -3.61549017347246        1.15520984016382
C            4.97879480950205       -1.50231032279130       -0.17203263316610
C           -0.04912628466382       -1.33190651470335       -0.64074928301182
C           -3.89285267788477        3.07198606669621        0.57700941846850
C           -4.55263214573123        2.77351502390928        1.92240998315866
C           -3.41970414676519        4.52400970383221        0.55043965011530
H           -4.63709021975487        0.95812759234702       -1.34497645832097
H           -6.82270252561598        0.29658295059698       -1.89050376191448
H           -7.13857332941411       -1.14645032653207       -2.88457670559978
H           -5.61596201905529       -0.24831726331226       -3.09205978794458
H           -4.25977319452938       -3.65341028784931        2.56304298134907
H           -5.37281803154788       -4.89156253360839        1.27073105550836
H           -3.65981910960221       -4.40343194312783        1.34650292038058
H           -3.13197027223810       -2.21682284215728        2.09488730423564
H           -2.20339717547808        0.01442595403376        2.02982745902464
H           -2.99290957831349        2.43596817760273       -1.85403245414617
H           -1.60022195771709        3.23707992325052       -1.12871606945764
H           -1.80549816795724        0.23507348405749       -1.60716568302613
H           -1.04313240699909        1.38529911733616       -2.71329603243487
H           -0.71986560459194        1.60086679198468        0.78252892928414
H            0.65697762226784        1.97299366016905       -0.93018866359916
H            2.12698260747544       -0.71206095113277        0.72133277681043
H            2.29638567673274        0.94660880852884        0.12565674136443
H            2.76695105759950        0.06326767162570       -2.16475845788705
H            2.69362624187156       -1.58807814086667       -1.52926365912712
H            4.62499660791961        1.54934660882251       -1.57310429047715
H            6.93124154997541        1.75106545165643       -0.80947285100966
H            8.66474370206053        1.80668784885673        0.79107349082000
H            9.21191448386751        1.13610714467007       -0.77274815161067
H           10.05055650318909        0.68895092400457        0.73405734833693
H            7.07520142314954       -4.23364827854321        1.65957331173430
H            5.45799156276632       -3.50265610584267        1.80344374615935
H            6.03408817733801       -4.10220145678663        0.22068490959909
H            4.41469943190181       -2.40810444242656       -0.00888440884377
H           -0.21950510634027       -1.63702019886560       -1.67998734042089
H           -1.01637549405023       -1.27531470731382       -0.13269094441270
H            0.55632885373327       -2.09070900745971       -0.15073427693209
H           -4.65017426631134        2.95002573425364       -0.20672898460579
H           -3.83294786762327        2.90837273679445        2.72332371411623
H           -4.92681328452891        1.75281457927319        1.95428027220004
H           -5.38781031606841        3.45249608732042        2.08072307001114
H           -2.64075239581191        4.67975991595917        1.29071781380872
H           -3.04270845456383        4.80763331877189       -0.42936190480385
H           -4.25575531946998        5.17815069659907        0.78927300372120
H           -0.70326374276018        2.79873517913476        2.80905373618444
72
 energy: 28.708658089095 xtb: 6.6.1 (8d0f1dd)
N           -1.63316927757123        2.84511084220457        2.31207940078596
C           -1.62199923271211        2.14026256208575        1.26272229258437
C           -2.76646447516416        2.05881809639505        0.28621956903148
C           -3.35120468809043        0.65696687033496        0.32858443643648
C           -4.31077370481739        0.26133723436593       -0.60723795499956
C           -4.87947413245465       -0.99909519913073       -0.57441559601638
O           -5.83071973057049       -1.44971476941663       -1.44768688172420
C           -6.34617695377703       -0.56050168514286       -2.40936773524697
C           -4.46630761008110       -1.90924469859927        0.42843863735631
O           -5.08070060976609       -3.12167734311986        0.50768752097892
C           -4.62552377253754       -4.03797380865057        1.48294890338665
C           -3.49708191633910       -1.52367315913734        1.32680273054625
C           -2.95804028779993       -0.25144125414302        1.29096929866466
C           -2.15863445457830        2.31383162841290       -1.11849942583407
C           -1.26167530746523        1.17862401583912       -1.64306171879441
C            0.01397569425042        1.10499030524575       -0.88588498691342
N            0.63987177416995       -0.09712647642101       -0.55634489555245
C            2.00675642488107       -0.09230154915829       -0.15684796776067
C            2.95020898782257       -0.56500578019272       -1.28711230468608
C            4.37527791032277       -0.45305729403202       -0.85437315302445
C            5.08921515694026        0.71229275607143       -1.06439361824236
C            6.40186657197407        0.82927850161585       -0.63145262896572
C            7.01763303864739       -0.21876253339139        0.02811385796351
O            8.30277534110758       -0.21916750669961        0.49106003384817
C            9.09144944933567        0.92139168277140        0.27696915471873
C            6.29399186164747       -1.40950804166565        0.25979644090462
O            6.98330497119302       -2.38871537250825        0.91470369994886
C            6.34603578687740       -3.61552894342868        1.15668816245077
C            4.98787527644811       -1.50837284591334       -0.17824027495993
C           -0.04819283841870       -1.34906588736611       -0.65493938346375
C           -3.90841350561852        3.06960350084980        0.57385323107214
C           -4.59127212960554        2.77250357690295        1.90884830846501
C           -3.43705871507178        4.52205985296084        0.55174528382977
H           -4.62281897900586        0.96433010331151       -1.36378745598758
H           -6.80388464756640        0.32068863677429       -1.94610508421418
H           -7.11375343690441       -1.12099248316468       -2.94284871325752
H           -5.58029078444702       -0.23640200853021       -3.12408764268850
H           -3.99868057492396       -3.62517904704241        2.62387642304526
H           -5.39527052970285       -4.83284988500237        1.34703289673860
H           -3.66422831390181       -4.44214039193778        1.29561215881348
H           -3.16285990846347       -2.20328982163908        2.09306418022922
H           -2.23729227816728        0.01714950664792        2.04531193315397
H           -2.97109252664748        2.47173136750696       -1.83168266284430
H           -1.56660791796028        3.23138892873583       -1.08027642604589
H           -1.80721011561815        0.23663934613022       -1.59446017236751
H           -1.06294540256677        1.38968031192865       -2.70631228111658
H           -0.74744384831331        1.56980447534075        0.88162336395090
H            0.66764793659298        1.95816922399753       -0.91994455238802
H            2.13433701834885       -0.74467881111139        0.71635266460025
H            2.29465275886248        0.92058644307494        0.13728239641676
H            2.76793826169485        0.06030433023447       -2.16303101619683
H            2.70269205356166       -1.59683545239151       -1.54181667648148
H            4.62770033631059        1.54029750038123       -1.58177321221466
H            6.93596007074500        1.74655590627487       -0.82282978028097
H            8.67396640356565        1.80437547469445        0.77337343328458
H            9.21926351041090        1.13288457152555       -0.79044189490553
H           10.06073748608791        0.68808082227958        0.71534948944302
H            7.08794764975233       -4.23159971435285        1.66302250159779
H            5.47135721494140       -3.49902730721742        1.80614427907566
H            6.04360206742737       -4.10792105872342        0.22577078363591
H            4.42404968041102       -2.41372673451596       -0.01183110940222
H           -0.21730271065603       -1.64653015789782       -1.69757144488807
H           -1.01687776467003       -1.29857642518670       -0.14884664102512
H            0.55372434250040       -2.11647692894326       -0.17087786796927
H           -4.65299345660802        2.94468103035544       -0.22236009237361
H           -3.88429244362659        2.91284082948841        2.72001723132882
H           -4.96225917369965        1.75048867534234        1.93792769022724
H           -5.43147785048941        3.44911957725928        2.05092064781658
H           -2.66855144443122        4.67611195804260        1.30295176194523
H           -3.04543218764614        4.80249122449410       -0.42328748087604
H           -4.27706394183520        5.17563478272004        0.77753659545015
H           -0.77040265966738        2.81434569525330        2.85511587244449
72
 energy: 42.667027228211 xtb: 6.6.1 (8d0f1dd)
N           -1.68426322172687        2.86078557606927        2.33724321129180
C           -1.64837108528445        2.14185461218832        1.30158866736879
C           -2.77427422428131        2.06211346764068        0.29964620692854
C           -3.36255879713644        0.66501236082650        0.32752912690086
C           -4.31197095482993        0.26685561256475       -0.61739246643745
C           -4.88950714471026       -0.99168563103105       -0.58699656574040
O           -5.83276913615197       -1.43427660202836       -1.47570523766533
C           -6.32474608715254       -0.54296007466369       -2.44956469895936
C           -4.48511229055416       -1.89298584220366        0.42690115115107
O           -5.08588416622006       -3.10937979466710        0.55221506921193
C           -4.60305307166923       -4.02379138616913        1.51609281393630
C           -3.51481165051638       -1.50510930186923        1.32183709342610
C           -2.97762757312838       -0.23757625175605        1.29643136617670
C           -2.14365407628974        2.32258941596083       -1.09377329216408
C           -1.26216218467883        1.17782445766699       -1.62776924738940
C            0.01952502669316        1.08987163600688       -0.88787717921817
N            0.63772205796336       -0.11217170271134       -0.55338420350370
C            2.00720019398802       -0.11330641346228       -0.15578856300827
C            2.95363853147417       -0.57406821889512       -1.29085093309475
C            4.38017438621677       -0.46005838910676       -0.85893943356688
C            5.09393966569267        0.70489084871361       -1.07299080414034
C            6.40782704839765        0.82388048280938       -0.64348455397896
C            7.02580256413049       -0.22305232274420        0.01610447976094
O            8.31197114543725       -0.22207507022981        0.47573977011869
C            9.09979932559542        0.91837118675201        0.25966589335409
C            6.30328760988833       -1.41362630503603        0.25155616280034
O            6.99434921859845       -2.39085742146226        0.90703468368014
C            6.35760765287482       -3.61592793786225        1.15771538109725
C            4.99574688175989       -1.51422569557901       -0.18345415190280
C           -0.04800593476751       -1.36483448122559       -0.66866314340987
C           -3.92278659009135        3.06927712743196        0.57117819431587
C           -4.62799043624321        2.77190905080838        1.89501073441688
C           -3.45404471157066        4.52189323414819        0.55328144614665
H           -4.60883225773389        0.96877548027971       -1.38105307337508
H           -6.78463100437871        0.34340267323685       -1.99833770749154
H           -7.08749559485777       -1.09751809353735       -2.99667802494015
H           -5.54478202064770       -0.22625724755163       -3.15278678766388
H           -3.77286545328078       -3.62159554412529        2.66770922864096
H           -5.40268673681141       -4.79417778882636        1.42270996639077
H           -3.69058450388374       -4.47158348822565        1.26957981037848
H           -3.19043050461077       -2.18302488529410        2.09134433374671
H           -2.26674896380123        0.02566611152502        2.06099203677045
H           -2.94692675354242        2.50733144061677       -1.81070986411439
H           -1.53348707165494        3.22678970012547       -1.03485176076177
H           -1.81220806653922        0.23871118862429       -1.57988844072406
H           -1.07729367785664        1.39289594752403       -2.69379615442106
H           -0.77538437121984        1.54788634617913        0.97191527109901
H            0.67463872577300        1.94278644918195       -0.90270126342719
H            2.13772348652376       -0.77565027372416        0.70997067325359
H            2.29483496001063        0.89605698278951        0.14907509379437
H            2.76898293070098        0.05752397827813       -2.16159596986657
H            2.71114124714574       -1.60508940479975       -1.55403478063406
H            4.63039399047799        1.53175036008160       -1.59043546098391
H            6.94021112770634        1.74158164973427       -0.83677138092871
H            8.68301108081396        1.80184833288450        0.75589435766317
H            9.22635991759790        1.12935632254305       -0.80806999707879
H           10.07020692699589        0.68655119016071        0.69667038347241
H            7.10038997686778       -4.22947773501701        1.66594766853112
H            5.48445221915498       -3.49562541436011        1.80860925109413
H            6.05289240070686       -4.11391889234601        0.23048497924197
H            4.43315676734422       -2.41978460914131       -0.01466773877899
H           -0.21400521733475       -1.65314655168758       -1.71445694936876
H           -1.01829075101314       -1.32125514940665       -0.16491255564271
H            0.55169858227303       -2.13891159230595       -0.19097021932652
H           -4.65433124402673        2.93994944194860       -0.23656613008623
H           -3.93602720012137        2.91768493025223        2.71811360475296
H           -4.99616380092668        1.74884507081305        1.92107184087139
H           -5.47309286702480        3.44561056945887        2.02067825785803
H           -2.69645358917789        4.67580764303817        1.31518317938590
H           -3.04855698627576        4.79929234573663       -0.41673061071810
H           -4.29775261078624        5.17443883497106        0.76605290724424
H           -0.83416226742427        2.83060522555816        2.90036158070300
72
 energy: 54.715769638829 xtb: 6.6.1 (8d0f1dd)
N           -1.71488786025176        2.87382740697700        2.34977469228481
C           -1.66693479437114        2.14386203850794        1.32527699627680
C           -2.77852183764152        2.06511668358759        0.30707723659918
C           -3.36846455095456        0.67118752870190        0.32613468018410
C           -4.31091414629989        0.26958171843165       -0.62328101726540
C           -4.89504208461890       -0.98822928064325       -0.59539343627568
O           -5.83335006229953       -1.42314550305357       -1.49292688392697
C           -6.30927747152927       -0.53125940599181       -2.47490550796608
C           -4.49547240679940       -1.88344257715360        0.42442879449135
O           -5.09067371892197       -3.09937672387930        0.58287173466960
C           -4.59704419320883       -4.01920849293734        1.53114252426273
C           -3.52570317301893       -1.49113802128203        1.31820831265595
C           -2.98844584938097       -0.22665115370201        1.30090237007227
C           -2.13193326039435        2.32918238655332       -1.07758435929156
C           -1.26197351337283        1.17756440862472       -1.61801295611981
C            0.02634433885155        1.07588846614720       -0.89437047556984
N            0.63463693122819       -0.12014804252781       -0.54939183897467
C            2.00753371696047       -0.12716363410157       -0.15467551493128
C            2.95460894520761       -0.57972637796743       -1.29291109933608
C            4.38262237408185       -0.46433818304277       -0.86141824332376