      -----------------------------------------------------------      
     |                   =====================                   |     
     |                           x T B                           |     
     |                   =====================                   |     
     |                         S. Grimme                         |     
     |          Mulliken Center for Theoretical Chemistry        |     
     |                    University of Bonn                     |     
      -----------------------------------------------------------      

   * xtb version 6.6.1 (8d0f1dd) compiled by 'conda@1efc2f54142f' on 2023-08-01

   xtb is free software: you can redistribute it and/or modify it under
   the terms of the GNU Lesser General Public License as published by
   the Free Software Foundation, either version 3 of the License, or
   (at your option) any later version.
   
   xtb is distributed in the hope that it will be useful,
   but WITHOUT ANY WARRANTY; without even the implied warranty of
   MERCHANTABILITY or FITNESS FOR A PARTICULAR PURPOSE.  See the
   GNU Lesser General Public License for more details.
   
   Cite this work as:
   * C. Bannwarth, E. Caldeweyher, S. Ehlert, A. Hansen, P. Pracht,
     J. Seibert, S. Spicher, S. Grimme, WIREs Comput. Mol. Sci., 2020, 11,
     e01493. DOI: 10.1002/wcms.1493
   
   for GFN2-xTB:
   * C. Bannwarth, S. Ehlert and S. Grimme., J. Chem. Theory Comput., 2019,
     15, 1652-1671. DOI: 10.1021/acs.jctc.8b01176
   for GFN1-xTB:
   * S. Grimme, C. Bannwarth, P. Shushkov, J. Chem. Theory Comput., 2017,
     13, 1989-2009. DOI: 10.1021/acs.jctc.7b00118
   for GFN0-xTB:
   * P. Pracht, E. Caldeweyher, S. Ehlert, S. Grimme, ChemRxiv, 2019, preprint.
     DOI: 10.26434/chemrxiv.8326202.v1
   for GFN-FF:
   * S. Spicher and S. Grimme, Angew. Chem. Int. Ed., 2020, 59, 15665-15673.
     DOI: 10.1002/anie.202004239
   
   for ALPB and GBSA implicit solvation:
   * S. Ehlert, M. Stahn, S. Spicher, S. Grimme, J. Chem. Theory Comput.,
     2021, 17, 4250-4261. DOI: 10.1021/acs.jctc.1c00471
   
   for DFT-D4:
   * E. Caldeweyher, C. Bannwarth and S. Grimme, J. Chem. Phys., 2017,
     147, 034112. DOI: 10.1063/1.4993215
   * E. Caldeweyher, S. Ehlert, A. Hansen, H. Neugebauer, S. Spicher,
     C. Bannwarth and S. Grimme, J. Chem. Phys., 2019, 150, 154122.
     DOI: 10.1063/1.5090222
   * E. Caldeweyher, J.-M. Mewes, S. Ehlert and S. Grimme, Phys. Chem. Chem. Phys.
     2020, 22, 8499-8512. DOI: 10.1039/D0CP00502A
   
   for sTDA-xTB:
   * S. Grimme and C. Bannwarth, J. Chem. Phys., 2016, 145, 054103.
     DOI: 10.1063/1.4959605
   
   in the mass-spec context:
   * V. Asgeirsson, C. Bauer and S. Grimme, Chem. Sci., 2017, 8, 4879.
     DOI: 10.1039/c7sc00601b
   * J. Koopman and S. Grimme, ACS Omega 2019, 4, 12, 15120-15133.
     DOI: 10.1021/acsomega.9b02011
   
   for metadynamics refer to:
   * S. Grimme, J. Chem. Theory Comput., 2019, 155, 2847-2862
     DOI: 10.1021/acs.jctc.9b00143
   
   for SPH calculations refer to:
   * S. Spicher and S. Grimme, J. Chem. Theory Comput., 2021, 17, 1701-1714
     DOI: 10.1021/acs.jctc.0c01306
   
   with help from (in alphabetical order)
   P. Atkinson, C. Bannwarth, F. Bohle, G. Brandenburg, E. Caldeweyher
   M. Checinski, S. Dohm, S. Ehlert, S. Ehrlich, I. Gerasimov, C. Hölzer
   A. Katbashev, J. Koopman, C. Lavigne, S. Lehtola, F. März, M. Müller,
   F. Musil, H. Neugebauer, J. Pisarek, C. Plett, P. Pracht, F. Pultar,
   J. Seibert, P. Shushkov, S. Spicher, M. Stahn, M. Steiner, T. Strunk,
   J. Stückrath, T. Rose, and J. Unsleber
   
 * started run on 2024/06/05 at 19:57:56.967     

           -------------------------------------------------
          |                Calculation Setup                |
           -------------------------------------------------

          program call               : xtb struc.xyz --opt loose --input .xc1 --gfn2
          hostname                   : n-62-29-35
          coordinate file            : struc.xyz
          omp threads                :                     1

   ID    Z sym.   atoms
    1    6 C      1, 3, 5-7, 10, 11, 14
    2    7 N      2, 4, 9, 13
    3    8 O      8, 12
    4    1 H      15-25
constraining bond 7 10 to    5.0000000 Å, actual value:    2.4325910 Å

           -------------------------------------------------
          |                 G F N 2 - x T B                 |
           -------------------------------------------------

        Reference                      10.1021/acs.jctc.8b01176
      * Hamiltonian:
        H0-scaling (s, p, d)           1.850000    2.230000    2.230000
        zeta-weighting                 0.500000
      * Dispersion:
        s8                             2.700000
        a1                             0.520000
        a2                             5.000000
        s9                             5.000000
      * Repulsion:
        kExp                           1.500000    1.000000
        rExp                           1.000000
      * Coulomb:
        alpha                          2.000000
        third order                    shell-resolved
        anisotropic                    true
        a3                             3.000000
        a5                             4.000000
        cn-shift                       1.200000
        cn-exp                         4.000000
        max-rad                        5.000000


          ...................................................
          :                      SETUP                      :
          :.................................................:
          :  # basis functions                  67          :
          :  # atomic orbitals                  67          :
          :  # shells                           39          :
          :  # electrons                        74          :
          :  max. iterations                   250          :
          :  Hamiltonian                  GFN2-xTB          :
          :  restarted?                      false          :
          :  GBSA solvation                  false          :
          :  PC potential                    false          :
          :  electronic temp.         5000.0000000     K    :
          :  accuracy                    1.0000000          :
          :  -> integral cutoff          0.2500000E+02      :
          :  -> integral neglect         0.1000000E-07      :
          :  -> SCF convergence          0.1000000E-05 Eh   :
          :  -> wf. convergence          0.1000000E-03 e    :
          :  Broyden damping             0.4000000          :
          ...................................................

 iter      E             dE          RMSdq      gap      omega  full diag
   1    -42.5894031 -0.425894E+02  0.445E+00    3.52       0.0  T
   2    -42.7683054 -0.178902E+00  0.251E+00    3.36       1.0  T
   3    -42.7759211 -0.761567E-02  0.147E+00    3.35       1.0  T
   4    -42.7728404  0.308066E-02  0.553E-01    3.33       1.0  T
   5    -42.7789548 -0.611444E-02  0.112E-01    3.35       1.0  T
   6    -42.7790473 -0.924914E-04  0.614E-02    3.33       1.0  T
   7    -42.7790721 -0.247928E-04  0.258E-02    3.34       1.0  T
   8    -42.7790772 -0.508996E-05  0.938E-03    3.34       2.1  T
   9    -42.7790779 -0.669422E-06  0.448E-03    3.34       4.5  T
  10    -42.7790780 -0.821511E-07  0.115E-03    3.34      17.4  T
  11    -42.7790780 -0.322662E-08  0.553E-04    3.34      36.2  T
  12    -42.7790780 -0.287052E-08  0.180E-04    3.34     111.1  T

   *** convergence criteria satisfied after 12 iterations ***

         #    Occupation            Energy/Eh            Energy/eV
      -------------------------------------------------------------
         1        2.0000           -0.9185990             -24.9964
       ...           ...                  ...                  ...
        31        1.9996           -0.6230278             -16.9534
        32        1.9995           -0.6194601             -16.8564
        33        1.9979           -0.5974976             -16.2587
        34        1.9932           -0.5789629             -15.7544
        35        1.9817           -0.5631863             -15.3251
        36        1.9779           -0.5602245             -15.2445
        37        1.9748           -0.5581234             -15.1873 (HOMO)
        38        0.0652           -0.4353579             -11.8467 (LUMO)
        39        0.0099           -0.4050467             -11.0219
        40        0.0013           -0.3732218             -10.1559
        41        0.0000           -0.2886859              -7.8555
        42                         -0.2065804              -5.6213
       ...                                ...                  ...
        67                          0.5625656              15.3082
      -------------------------------------------------------------
                  HL-Gap            0.1227656 Eh            3.3406 eV
             Fermi-level           -0.4890455 Eh          -13.3076 eV

 SCC (total)                   0 d,  0 h,  0 min,  0.057 sec
 SCC setup                      ...        0 min,  0.000 sec (  0.394%)
 Dispersion                     ...        0 min,  0.000 sec (  0.470%)
 classical contributions        ...        0 min,  0.000 sec (  0.125%)
 integral evaluation            ...        0 min,  0.005 sec (  8.208%)
 iterations                     ...        0 min,  0.031 sec ( 54.149%)
 molecular gradient             ...        0 min,  0.021 sec ( 36.356%)
 printout                       ...        0 min,  0.000 sec (  0.276%)

         :::::::::::::::::::::::::::::::::::::::::::::::::::::
         ::                     SUMMARY                     ::
         :::::::::::::::::::::::::::::::::::::::::::::::::::::
         :: total energy             -30.478364770182 Eh    ::
         :: gradient norm              6.863262907998 Eh/a0 ::
         :: HOMO-LUMO gap              3.340621582928 eV    ::
         ::.................................................::
         :: SCC energy               -42.779077977399 Eh    ::
         :: -> isotropic ES            0.141123876439 Eh    ::
         :: -> anisotropic ES         -0.005230418907 Eh    ::
         :: -> anisotropic XC          0.011966818540 Eh    ::
         :: -> dispersion             -0.022657731803 Eh    ::
         :: repulsion energy           0.531105277918 Eh    ::
         :: add. restraining          11.769493770290 Eh    ::
         :: total charge               1.000000000002 e     ::
         :::::::::::::::::::::::::::::::::::::::::::::::::::::

      ----------------------------------------------------------- 
     |                   =====================                   |
     |                        A N C O P T                        |
     |                   =====================                   |
     |               Approximate Normal Coordinate               |
     |                Rational Function Optimizer                |
      ----------------------------------------------------------- 

          ...................................................
          :                      SETUP                      :
          :.................................................:
          :   optimization level             loose          :
          :   max. optcycles                   200          :
          :   ANC micro-cycles                  20          :
          :   degrees of freedom                69          :
          :.................................................:
          :   RF solver                   davidson          :
          :   write xtbopt.log                true          :
          :   linear?                        false          :
          :   energy convergence         0.5000000E-04 Eh   :
          :   grad. convergence          0.4000000E-02 Eh/α :
          :   maxmium RF displ.          1.0000000          :
          :   Hlow (freq-cutoff)         0.1000000E-01      :
          :   Hmax (freq-cutoff)         5.0000000          :
          :   S6 in model hess.         20.0000000          :
          ...................................................

generating ANC from model Hessian ...
Using Lindh-Hessian (1995)
 Shifting diagonal of input Hessian by    1.6960399102351278     
 Lowest  eigenvalues of input Hessian
    0.010000    0.476972    0.000000    0.000000    0.000000    0.000000
    0.000000    0.000000    1.698866    1.701624    1.705584    1.706384
    1.707166    1.709253    1.713560    1.714597    1.720803    1.729736
 Highest eigenvalues
    3.820852    3.907978    3.951691    4.001926    4.201866    4.851333


........................................................................
.............................. CYCLE    1 ..............................
........................................................................

 iter      E             dE          RMSdq      gap      omega  full diag
   1    -42.7790780 -0.427791E+02  0.626E-05    3.34       0.0  T
   2    -42.7790780 -0.124203E-10  0.329E-05    3.34     607.4  T
   3    -42.7790780  0.106581E-12  0.193E-05    3.34    1034.2  T
     SCC iter.                  ...        0 min,  0.018 sec
     gradient                   ...        0 min,  0.011 sec
 * total energy  :   -30.4783648 Eh     change       -0.6650680E-10 Eh
   gradient norm :     6.8632625 Eh/α   predicted     0.0000000E+00 (-100.00%)
   displ. norm   :     0.7169330 α      lambda       -0.4909852E+01
   maximum displ.:     0.6723331 α      in ANC's #69, #61, #68, ...

........................................................................
.............................. CYCLE    2 ..............................
........................................................................

 iter      E             dE          RMSdq      gap      omega  full diag
   1    -42.7163073 -0.427163E+02  0.121E+00    2.93       0.0  T
   2    -42.7288012 -0.124939E-01  0.806E-01    2.42       1.0  T
   3    -42.7339760 -0.517479E-02  0.402E-01    2.73       1.0  T
   4    -42.7337667  0.209281E-03  0.152E-01    2.61       1.0  T
   5    -42.7342808 -0.514093E-03  0.362E-02    2.68       1.0  T
   6    -42.7342995 -0.186742E-04  0.120E-02    2.68       1.7  T
   7    -42.7342995 -0.649250E-07  0.536E-03    2.69       3.7  T
   8    -42.7343000 -0.422347E-06  0.182E-03    2.69      11.0  T
   9    -42.7343000 -0.483128E-07  0.795E-04    2.68      25.2  T
  10    -42.7343000 -0.449452E-08  0.280E-04    2.68      71.5  T
     SCC iter.                  ...        0 min,  0.014 sec
     gradient                   ...        0 min,  0.012 sec
 * total energy  :   -34.7728922 Eh     change       -0.4294527E+01 Eh
   gradient norm :     5.1573157 Eh/α   predicted    -0.3716750E+01 ( -13.45%)
   displ. norm   :     0.7993587 α      lambda       -0.4114103E+01
   maximum displ.:     0.7456143 α      in ANC's #69, #61, #68, ...

........................................................................
.............................. CYCLE    3 ..............................
........................................................................

 iter      E             dE          RMSdq      gap      omega  full diag
   1    -42.5671169 -0.425671E+02  0.153E+00    1.92       0.0  T
   2    -42.5460101  0.211067E-01  0.145E+00    1.37       1.0  T
   3    -42.5840965 -0.380864E-01  0.686E-01    1.90       1.0  T
   4    -42.5875727 -0.347619E-02  0.262E-01    1.66       1.0  T
   5    -42.5892892 -0.171656E-02  0.645E-02    1.79       1.0  T
   6    -42.5893988 -0.109565E-03  0.339E-02    1.76       1.0  T
   7    -42.5894135 -0.146985E-04  0.132E-02    1.77       1.5  T
   8    -42.5894142 -0.703826E-06  0.515E-03    1.77       3.9  T
   9    -42.5894148 -0.569699E-06  0.165E-03    1.77      12.1  T
  10    -42.5894148 -0.289692E-07  0.718E-04    1.77      27.9  T
  11    -42.5894148 -0.707485E-08  0.170E-04    1.77     118.0  T
     SCC iter.                  ...        0 min,  0.016 sec
     gradient                   ...        0 min,  0.011 sec
 * total energy  :   -38.1957872 Eh     change       -0.3422895E+01 Eh
   gradient norm :     3.4666884 Eh/α   predicted    -0.3371456E+01 (  -1.50%)
   displ. norm   :     0.7717997 α      lambda       -0.2652667E+01
   maximum displ.:     0.6690887 α      in ANC's #69, #61, #2, ...

........................................................................
.............................. CYCLE    4 ..............................
........................................................................

 iter      E             dE          RMSdq      gap      omega  full diag
   1    -42.3937013 -0.423937E+02  0.113E+00    1.42       0.0  T
   2    -42.3716805  0.220208E-01  0.121E+00    1.00       1.0  T
   3    -42.3953686 -0.236881E-01  0.634E-01    1.46       1.0  T
   4    -42.3964951 -0.112647E-02  0.500E-01    1.27       1.0  T
   5    -42.3978225 -0.132743E-02  0.390E-01    1.21       1.0  T
   6    -42.4038126 -0.599009E-02  0.584E-02    1.30       1.0  T
   7    -42.4037770  0.356077E-04  0.499E-02    1.29       1.0  T
   8    -42.4038370 -0.600727E-04  0.181E-02    1.29       1.1  T
   9    -42.4038475 -0.104970E-04  0.454E-03    1.30       4.4  T
  10    -42.4038478 -0.268431E-06  0.190E-03    1.30      10.5  T
  11    -42.4038478 -0.148144E-07  0.756E-04    1.30      26.4  T
  12    -42.4038478 -0.128884E-07  0.250E-04    1.30      80.0  T
     SCC iter.                  ...        0 min,  0.017 sec
     gradient                   ...        0 min,  0.011 sec
 * total energy  :   -40.3436248 Eh     change       -0.2147838E+01 Eh
   gradient norm :     2.1209176 Eh/α   predicted    -0.2116407E+01 (  -1.46%)
   displ. norm   :     0.6923024 α      lambda       -0.1448978E+01
   maximum displ.:     0.5815025 α      in ANC's #69, #2, #61, ...

........................................................................
.............................. CYCLE    5 ..............................
........................................................................

 iter      E             dE          RMSdq      gap      omega  full diag
   1    -42.2318113 -0.422318E+02  0.108E+00    0.89       0.0  T
   2    -42.2183796  0.134317E-01  0.974E-01    0.90       1.0  T
   3    -42.1894110  0.289686E-01  0.119E+00    0.99       1.0  T
   4    -42.1870794  0.233157E-02  0.972E-01    0.99       1.0  T
   5    -42.2206386 -0.335592E-01  0.571E-01    0.85       1.0  T
   6    -42.2351081 -0.144695E-01  0.156E-01    0.97       1.0  T
   7    -42.2355082 -0.400085E-03  0.841E-02    0.96       1.0  T
   8    -42.2357337 -0.225559E-03  0.229E-02    0.96       1.0  T
   9    -42.2357505 -0.167828E-04  0.716E-03    0.96       2.8  T
  10    -42.2357511 -0.587384E-06  0.414E-03    0.96       4.8  T
  11    -42.2357514 -0.322833E-06  0.122E-03    0.96      16.4  T
  12    -42.2357514 -0.229731E-08  0.624E-04    0.96      32.0  T
  13    -42.2357515 -0.141386E-07  0.162E-04    0.96     123.6  T
     SCC iter.                  ...        0 min,  0.018 sec
     gradient                   ...        0 min,  0.011 sec
 * total energy  :   -41.3804889 Eh     change       -0.1036864E+01 Eh
   gradient norm :     0.9072015 Eh/α   predicted    -0.1071730E+01 (   3.36%)
   displ. norm   :     0.4642622 α      lambda       -0.4049813E+00
   maximum displ.:     0.3479595 α      in ANC's #69, #2, #60, ...

........................................................................
.............................. CYCLE    6 ..............................
........................................................................

 iter      E             dE          RMSdq      gap      omega  full diag
   1    -42.1521284 -0.421521E+02  0.985E-01    0.46       0.0  T
   2    -42.0461538  0.105975E+00  0.172E+00    0.74       1.0  T
   3    -42.1031716 -0.570178E-01  0.124E+00    0.57       1.0  T
   4    -42.1214356 -0.182640E-01  0.872E-01    0.51       1.0  T
   5    -42.1509400 -0.295044E-01  0.469E-01    0.52       1.0  T
   6    -42.1598279 -0.888794E-02  0.158E-01    0.52       1.0  T
   7    -42.1601276 -0.299680E-03  0.107E-01    0.52       1.0  T
   8    -42.1604104 -0.282845E-03  0.480E-02    0.52       1.0  T
   9    -42.1605097 -0.993129E-04  0.926E-03    0.52       2.2  T
  10    -42.1605107 -0.920647E-06  0.391E-03    0.52       5.1  T
  11    -42.1605103  0.415285E-06  0.328E-03    0.52       6.1  T
  12    -42.1605108 -0.501265E-06  0.497E-04    0.52      40.3  T
  13    -42.1605108 -0.387483E-08  0.275E-04    0.52      72.8  T
     SCC iter.                  ...        0 min,  0.018 sec
     gradient                   ...        0 min,  0.011 sec
 * total energy  :   -41.6283501 Eh     change       -0.2478611E+00 Eh
   gradient norm :     0.2848173 Eh/α   predicted    -0.2461354E+00 (  -0.70%)
   displ. norm   :     0.2479356 α      lambda       -0.5918171E-01
   maximum displ.:     0.1796734 α      in ANC's #2, #69, #48, ...

........................................................................
.............................. CYCLE    7 ..............................
........................................................................

 iter      E             dE          RMSdq      gap      omega  full diag
   1    -42.1617374 -0.421617E+02  0.623E-01    0.41       0.0  T
   2    -42.0899774  0.717600E-01  0.143E+00    0.30       1.0  T
   3    -42.1674434 -0.774660E-01  0.371E-01    0.40       1.0  T
   4    -42.1654956  0.194780E-02  0.424E-01    0.41       1.0  T
   5    -42.1720548 -0.655919E-02  0.157E-01    0.39       1.0  T
   6    -42.1723771 -0.322273E-03  0.924E-02    0.39       1.0  T
   7    -42.1727151 -0.338003E-03  0.275E-02    0.39       1.0  T
   8    -42.1727268 -0.117258E-04  0.154E-02    0.39       1.3  T
   9    -42.1727314 -0.457891E-05  0.958E-03    0.39       2.1  T
  10    -42.1727342 -0.276085E-05  0.204E-03    0.39       9.8  T
  11    -42.1727342 -0.267436E-07  0.137E-03    0.39      14.6  T
  12    -42.1727343 -0.611318E-07  0.401E-04    0.39      49.9  T
  13    -42.1727343 -0.451791E-08  0.195E-04    0.39     102.8  T
     SCC iter.                  ...        0 min,  0.018 sec
     gradient                   ...        0 min,  0.011 sec
 * total energy  :   -41.6708690 Eh     change       -0.4251888E-01 Eh
   gradient norm :     0.2119272 Eh/α   predicted    -0.3141718E-01 ( -26.11%)
   displ. norm   :     0.2662511 α      lambda       -0.4060160E-01
   maximum displ.:     0.1861392 α      in ANC's #2, #48, #18, ...

........................................................................
.............................. CYCLE    8 ..............................
........................................................................

 iter      E             dE          RMSdq      gap      omega  full diag
   1    -42.1944802 -0.421945E+02  0.718E-01    0.38       0.0  T
   2    -42.0783837  0.116097E+00  0.165E+00    0.19       1.0  T
   3    -42.1878104 -0.109427E+00  0.675E-01    0.32       1.0  T
   4    -42.1998316 -0.120212E-01  0.576E-01    0.44       1.0  T
   5    -42.2108377 -0.110061E-01  0.174E-01    0.35       1.0  T
   6    -42.2107677  0.700198E-04  0.109E-01    0.34       1.0  T
   7    -42.2112034 -0.435696E-03  0.420E-02    0.34       1.0  T
   8    -42.2112547 -0.513329E-04  0.859E-03    0.34       2.3  T
   9    -42.2112553 -0.549140E-06  0.576E-03    0.34       3.5  T
  10    -42.2112566 -0.135457E-05  0.129E-03    0.34      15.5  T
  11    -42.2112567 -0.292276E-07  0.523E-04    0.34      38.3  T
  12    -42.2112567 -0.552783E-08  0.232E-04    0.34      86.2  T
     SCC iter.                  ...        0 min,  0.017 sec
     gradient                   ...        0 min,  0.011 sec
 * total energy  :   -41.6967511 Eh     change       -0.2588218E-01 Eh
   gradient norm :     0.1862811 Eh/α   predicted    -0.2174005E-01 ( -16.00%)
   displ. norm   :     0.1739033 α      lambda       -0.1985670E-01
   maximum displ.:     0.0744179 α      in ANC's #2, #18, #48, ...

........................................................................
.............................. CYCLE    9 ..............................
........................................................................

 iter      E             dE          RMSdq      gap      omega  full diag
   1    -42.2362713 -0.422363E+02  0.230E-01    0.35       0.0  T
   2    -42.2360300  0.241258E-03  0.168E-01    0.35       1.0  T
   3    -42.2314073  0.462268E-02  0.336E-01    0.31       1.0  T
   4    -42.2358041 -0.439678E-02  0.152E-01    0.37       1.0  T
   5    -42.2360403 -0.236207E-03  0.118E-01    0.33       1.0  T
   6    -42.2365865 -0.546191E-03  0.392E-02    0.34       1.0  T
   7    -42.2366318 -0.453256E-04  0.206E-02    0.34       1.0  T
   8    -42.2366459 -0.140574E-04  0.854E-03    0.34       2.3  T
   9    -42.2366474 -0.149922E-05  0.342E-03    0.34       5.9  T
  10    -42.2366477 -0.271423E-06  0.172E-03    0.34      11.7  T
  11    -42.2366477 -0.833018E-07  0.563E-04    0.34      35.6  T
  12    -42.2366478 -0.105900E-07  0.239E-04    0.34      83.7  T
     SCC iter.                  ...        0 min,  0.017 sec
     gradient                   ...        0 min,  0.011 sec
 * total energy  :   -41.7135906 Eh     change       -0.1683945E-01 Eh
   gradient norm :     0.1793396 Eh/α   predicted    -0.1022962E-01 ( -39.25%)
   displ. norm   :     0.4208883 α      lambda       -0.4900154E-01
   maximum displ.:     0.1971646 α      in ANC's #18, #48, #2, ...

........................................................................
.............................. CYCLE   10 ..............................
........................................................................

 iter      E             dE          RMSdq      gap      omega  full diag
   1    -42.2727828 -0.422728E+02  0.568E-01    0.35       0.0  T
   2    -42.2470723  0.257105E-01  0.937E-01    0.38       1.0  T
   3    -42.2755668 -0.284945E-01  0.427E-01    0.45       1.0  T
   4    -42.2449137  0.306531E-01  0.937E-01    0.27       1.0  T
   5    -42.2794636 -0.345499E-01  0.127E-01    0.35       1.0  T
   6    -42.2796574 -0.193842E-03  0.804E-02    0.35       1.0  T
   7    -42.2797684 -0.110962E-03  0.503E-02    0.36       1.0  T
   8    -42.2798214 -0.530188E-04  0.248E-02    0.37       1.0  T
   9    -42.2798462 -0.247570E-04  0.827E-03    0.37       2.4  T
  10    -42.2798474 -0.127160E-05  0.450E-03    0.37       4.4  T
  11    -42.2798479 -0.482896E-06  0.199E-03    0.37      10.1  T
  12    -42.2798480 -0.125604E-06  0.392E-04    0.37      51.0  T
  13    -42.2798480 -0.462055E-08  0.163E-04    0.37     122.5  T
     SCC iter.                  ...        0 min,  0.018 sec
     gradient                   ...        0 min,  0.011 sec
 * total energy  :   -41.7458066 Eh     change       -0.3221602E-01 Eh
   gradient norm :     0.1382696 Eh/α   predicted    -0.2884159E-01 ( -10.47%)
   displ. norm   :     0.4272133 α      lambda       -0.1844819E-01
   maximum displ.:     0.3241051 α      in ANC's #1, #18, #2, ...

........................................................................
.............................. CYCLE   11 ..............................
........................................................................

 iter      E             dE          RMSdq      gap      omega  full diag
   1    -42.2690700 -0.422691E+02  0.599E-01    0.36       0.0  T
   2    -42.2088700  0.602000E-01  0.127E+00    0.29       1.0  T
   3    -42.2653427 -0.564726E-01  0.658E-01    0.54       1.0  T
   4    -42.2734659 -0.812322E-02  0.455E-01    0.29       1.0  T
   5    -42.2800834 -0.661750E-02  0.122E-01    0.37       1.0  T
   6    -42.2801703 -0.869337E-04  0.696E-02    0.37       1.0  T
   7    -42.2803252 -0.154901E-03  0.264E-02    0.37       1.0  T
   8    -42.2803326 -0.743896E-05  0.192E-02    0.37       1.0  T
   9    -42.2803453 -0.126031E-04  0.720E-03    0.37       2.8  T
  10    -42.2803472 -0.199473E-05  0.189E-03    0.37      10.6  T
  11    -42.2803473 -0.817054E-07  0.877E-04    0.37      22.8  T
  12    -42.2803473 -0.167500E-07  0.253E-04    0.37      79.1  T
     SCC iter.                  ...        0 min,  0.017 sec
     gradient                   ...        0 min,  0.011 sec
 * total energy  :   -41.7520739 Eh     change       -0.6267305E-02 Eh
   gradient norm :     0.1724777 Eh/α   predicted    -0.1090770E-01 (  74.04%)
   displ. norm   :     0.6521355 α      lambda       -0.3739750E-01
   maximum displ.:     0.4459936 α      in ANC's #1, #18, #2, ...

........................................................................
.............................. CYCLE   12 ..............................
........................................................................

 iter      E             dE          RMSdq      gap      omega  full diag
   1    -42.2830535 -0.422831E+02  0.632E-01    0.39       0.0  T
   2    -42.2794669  0.358665E-02  0.523E-01    0.41       1.0  T
   3    -42.2656688  0.137981E-01  0.613E-01    0.42       1.0  T
   4    -42.2504528  0.152159E-01  0.909E-01    0.20       1.0  T
   5    -42.2840282 -0.335754E-01  0.977E-02    0.40       1.0  T
   6    -42.2841015 -0.732493E-04  0.628E-02    0.38       1.0  T
   7    -42.2842326 -0.131083E-03  0.304E-02    0.38       1.0  T
   8    -42.2842567 -0.241748E-04  0.128E-02    0.39       1.6  T
   9    -42.2842601 -0.334016E-05  0.563E-03    0.39       3.6  T
  10    -42.2842606 -0.547819E-06  0.306E-03    0.39       6.5  T
  11    -42.2842609 -0.249396E-06  0.826E-04    0.39      24.2  T
  12    -42.2842609 -0.118350E-07  0.285E-04    0.39      70.2  T
     SCC iter.                  ...        0 min,  0.017 sec
     gradient                   ...        0 min,  0.011 sec
 * total energy  :   -41.7626609 Eh     change       -0.1058703E-01 Eh
   gradient norm :     0.2048052 Eh/α   predicted    -0.2665105E-01 ( 151.73%)
   displ. norm   :     0.1987484 α      lambda       -0.2270016E-01
   maximum displ.:     0.1443290 α      in ANC's #1, #48, #18, ...

........................................................................
.............................. CYCLE   13 ..............................
........................................................................

 iter      E             dE          RMSdq      gap      omega  full diag
   1    -42.2787469 -0.422787E+02  0.300E-01    0.37       0.0  T
   2    -42.2645827  0.141642E-01  0.616E-01    0.39       1.0  T
   3    -42.2783527 -0.137699E-01  0.255E-01    0.30       1.0  T
   4    -42.2747953  0.355737E-02  0.392E-01    0.47       1.0  T
   5    -42.2802197 -0.542437E-02  0.126E-01    0.37       1.0  T
   6    -42.2806524 -0.432714E-03  0.522E-02    0.38       1.0  T
   7    -42.2807278 -0.754802E-04  0.290E-02    0.37       1.0  T
   8    -42.2807460 -0.181622E-04  0.166E-02    0.37       1.2  T
   9    -42.2807555 -0.953737E-05  0.399E-03    0.37       5.0  T
  10    -42.2807560 -0.482347E-06  0.972E-04    0.37      20.6  T
  11    -42.2807560 -0.877213E-08  0.419E-04    0.37      47.7  T
     SCC iter.                  ...        0 min,  0.015 sec
     gradient                   ...        0 min,  0.011 sec
 * total energy  :   -41.7779849 Eh     change       -0.1532400E-01 Eh
   gradient norm :     0.1083817 Eh/α   predicted    -0.1179837E-01 ( -23.01%)
   displ. norm   :     0.1994245 α      lambda       -0.1663861E-01
   maximum displ.:     0.0757147 α      in ANC's #18, #49, #1, ...

........................................................................
.............................. CYCLE   14 ..............................
........................................................................

 iter      E             dE          RMSdq      gap      omega  full diag
   1    -42.2761178 -0.422761E+02  0.277E-01    0.34       0.0  T
   2    -42.2653401  0.107777E-01  0.500E-01    0.43       1.0  T
   3    -42.2697513 -0.441119E-02  0.421E-01    0.25       1.0  T
   4    -42.2762771 -0.652585E-02  0.182E-01    0.38       1.0  T
   5    -42.2771954 -0.918303E-03  0.754E-02    0.34       1.0  T
   6    -42.2772896 -0.941949E-04  0.301E-02    0.36       1.0  T
   7    -42.2773139 -0.242952E-04  0.132E-02    0.35       1.5  T
   8    -42.2773171 -0.321581E-05  0.794E-03    0.35       2.5  T
   9    -42.2773191 -0.192460E-05  0.284E-03    0.35       7.0  T
  10    -42.2773193 -0.208678E-06  0.110E-03    0.35      18.1  T
  11    -42.2773193 -0.232182E-07  0.434E-04    0.35      46.1  T
  12    -42.2773193 -0.620422E-08  0.124E-04    0.35     161.9  T
     SCC iter.                  ...        0 min,  0.017 sec
     gradient                   ...        0 min,  0.011 sec
 * total energy  :   -41.7908366 Eh     change       -0.1285168E-01 Eh
   gradient norm :     0.0836771 Eh/α   predicted    -0.8650435E-02 ( -32.69%)
   displ. norm   :     0.3458120 α      lambda       -0.1815484E-01
   maximum displ.:     0.1555054 α      in ANC's #18, #6, #49, ...

........................................................................
.............................. CYCLE   15 ..............................
........................................................................

 iter      E             dE          RMSdq      gap      omega  full diag
   1    -42.2773032 -0.422773E+02  0.401E-01    0.32       0.0  T
   2    -42.2412065  0.360968E-01  0.878E-01    0.55       1.0  T
   3    -42.2661153 -0.249088E-01  0.584E-01    0.20       1.0  T
   4    -42.2773549 -0.112396E-01  0.272E-01    0.36       1.0  T
   5    -42.2794569 -0.210202E-02  0.103E-01    0.33       1.0  T
   6    -42.2796586 -0.201693E-03  0.368E-02    0.35       1.0  T
   7    -42.2796918 -0.332786E-04  0.147E-02    0.34       1.4  T
   8    -42.2796957 -0.382578E-05  0.774E-03    0.34       2.6  T
   9    -42.2796973 -0.162101E-05  0.219E-03    0.34       9.1  T
  10    -42.2796974 -0.116377E-06  0.880E-04    0.34      22.7  T
  11    -42.2796974 -0.109952E-07  0.368E-04    0.34      54.4  T
     SCC iter.                  ...        0 min,  0.015 sec
     gradient                   ...        0 min,  0.011 sec
 * total energy  :   -41.8042971 Eh     change       -0.1346053E-01 Eh
   gradient norm :     0.1092619 Eh/α   predicted    -0.1016347E-01 ( -24.49%)
   displ. norm   :     0.3911166 α      lambda       -0.1578921E-01
   maximum displ.:     0.1810594 α      in ANC's #18, #6, #9, ...

........................................................................
.............................. CYCLE   16 ..............................
........................................................................

 iter      E             dE          RMSdq      gap      omega  full diag
   1    -42.2865061 -0.422865E+02  0.394E-01    0.31       0.0  T
   2    -42.2340172  0.524888E-01  0.106E+00    0.63       1.0  T
   3    -42.2814379 -0.474207E-01  0.455E-01    0.23       1.0  T
   4    -42.2869452 -0.550723E-02  0.269E-01    0.36       1.0  T
   5    -42.2890467 -0.210149E-02  0.793E-02    0.34       1.0  T
   6    -42.2891792 -0.132564E-03  0.282E-02    0.35       1.0  T
   7    -42.2891984 -0.191352E-04  0.973E-03    0.35       2.1  T
   8    -42.2891984 -0.622320E-07  0.586E-03    0.35       3.4  T
   9    -42.2891994 -0.957709E-06  0.130E-03    0.35      15.4  T
  10    -42.2891994 -0.259166E-07  0.730E-04    0.35      27.4  T
  11    -42.2891994 -0.872591E-08  0.347E-04    0.35      57.6  T
     SCC iter.                  ...        0 min,  0.015 sec
     gradient                   ...        0 min,  0.011 sec
 * total energy  :   -41.8172027 Eh     change       -0.1290553E-01 Eh
   gradient norm :     0.1342405 Eh/α   predicted    -0.9102491E-02 ( -29.47%)
   displ. norm   :     0.5296496 α      lambda       -0.2342628E-01
   maximum displ.:     0.2366854 α      in ANC's #18, #6, #9, ...

........................................................................
.............................. CYCLE   17 ..............................
........................................................................

 iter      E             dE          RMSdq      gap      omega  full diag
   1    -42.3077059 -0.423077E+02  0.464E-01    0.30       0.0  T
   2    -42.2247002  0.830057E-01  0.134E+00    0.78       1.0  T
   3    -42.3072297 -0.825295E-01  0.372E-01    0.28       1.0  T
   4    -42.3096200 -0.239028E-02  0.241E-01    0.39       1.0  T
   5    -42.3113677 -0.174772E-02  0.846E-02    0.36       1.0  T
   6    -42.3115728 -0.205119E-03  0.214E-02    0.37       1.0  T
   7    -42.3115796 -0.684137E-05  0.114E-02    0.37       1.8  T
   8    -42.3115810 -0.138096E-05  0.581E-03    0.37       3.4  T
   9    -42.3115817 -0.711120E-06  0.182E-03    0.37      11.0  T
  10    -42.3115818 -0.293247E-07  0.102E-03    0.37      19.6  T
  11    -42.3115818 -0.621223E-08  0.614E-04    0.37      32.6  T
  12    -42.3115818 -0.801951E-08  0.318E-04    0.37      62.8  T
     SCC iter.                  ...        0 min,  0.017 sec
     gradient                   ...        0 min,  0.011 sec
 * total energy  :   -41.8370963 Eh     change       -0.1989362E-01 Eh
   gradient norm :     0.1427573 Eh/α   predicted    -0.1499907E-01 ( -24.60%)
   displ. norm   :     0.5897613 α      lambda       -0.3228853E-01
   maximum displ.:     0.2427409 α      in ANC's #18, #6, #9, ...

........................................................................
.............................. CYCLE   18 ..............................
........................................................................

 iter      E             dE          RMSdq      gap      omega  full diag
   1    -42.3480216 -0.423480E+02  0.559E-01    0.33       0.0  T
   2    -42.2568871  0.911344E-01  0.143E+00    0.89       1.0  T
   3    -42.3483329 -0.914457E-01  0.406E-01    0.33       1.0  T
   4    -42.3527100 -0.437708E-02  0.172E-01    0.43       1.0  T
   5    -42.3529680 -0.258065E-03  0.893E-02    0.42       1.0  T
   6    -42.3532206 -0.252602E-03  0.305E-02    0.42       1.0  T
   7    -42.3532416 -0.209226E-04  0.125E-02    0.42       1.6  T
   8    -42.3532436 -0.203556E-05  0.633E-03    0.42       3.2  T
   9    -42.3532442 -0.647015E-06  0.318E-03    0.42       6.3  T
  10    -42.3532445 -0.212642E-06  0.120E-03    0.42      16.6  T
  11    -42.3532445 -0.190431E-07  0.376E-04    0.42      53.2  T
  12    -42.3532445  0.106766E-08  0.316E-04    0.42      63.3  T
     SCC iter.                  ...        0 min,  0.017 sec
     gradient                   ...        0 min,  0.011 sec
 * total energy  :   -41.8634856 Eh     change       -0.2638928E-01 Eh
   gradient norm :     0.1284161 Eh/α   predicted    -0.2175966E-01 ( -17.54%)
   displ. norm   :     0.5291549 α      lambda       -0.2963807E-01
   maximum displ.:     0.2022669 α      in ANC's #18, #6, #12, ...

........................................................................
.............................. CYCLE   19 ..............................
........................................................................

 iter      E             dE          RMSdq      gap      omega  full diag
   1    -42.4014295 -0.424014E+02  0.585E-01    0.41       0.0  T
   2    -42.3169732  0.844563E-01  0.139E+00    0.98       1.0  T
   3    -42.4020473 -0.850741E-01  0.408E-01    0.41       1.0  T
   4    -42.4064593 -0.441203E-02  0.197E-01    0.52       1.0  T
   5    -42.4068817 -0.422346E-03  0.856E-02    0.50       1.0  T
   6    -42.4071085 -0.226861E-03  0.281E-02    0.50       1.0  T
   7    -42.4071217 -0.132057E-04  0.144E-02    0.51       1.4  T
   8    -42.4071253 -0.354541E-05  0.606E-03    0.51       3.3  T
   9    -42.4071258 -0.559771E-06  0.257E-03    0.51       7.8  T
  10    -42.4071260 -0.132869E-06  0.108E-03    0.51      18.6  T
  11    -42.4071260 -0.211135E-07  0.315E-04    0.51      63.5  T
  12    -42.4071260 -0.189274E-09  0.195E-04    0.51     102.4  T
     SCC iter.                  ...        0 min,  0.017 sec
     gradient                   ...        0 min,  0.011 sec
 * total energy  :   -41.8852824 Eh     change       -0.2179687E-01 Eh
   gradient norm :     0.1472046 Eh/α   predicted    -0.1896896E-01 ( -12.97%)
   displ. norm   :     0.4874369 α      lambda       -0.2153883E-01
   maximum displ.:     0.2044914 α      in ANC's #18, #6, #12, ...

........................................................................
.............................. CYCLE   20 ..............................
........................................................................

 iter      E             dE          RMSdq      gap      omega  full diag
   1    -42.4407787 -0.424408E+02  0.528E-01    0.52       0.0  T
   2    -42.3857381  0.550406E-01  0.116E+00    1.04       1.0  T
   3    -42.4411333 -0.553952E-01  0.355E-01    0.51       1.0  T
   4    -42.4437027 -0.256947E-02  0.222E-01    0.64       1.0  T
   5    -42.4447972 -0.109447E-02  0.704E-02    0.60       1.0  T
   6    -42.4449374 -0.140148E-03  0.225E-02    0.60       1.0  T
   7    -42.4449450 -0.762221E-05  0.126E-02    0.61       1.6  T
   8    -42.4449481 -0.317411E-05  0.403E-03    0.61       5.0  T
   9    -42.4449484 -0.214446E-06  0.131E-03    0.61      15.3  T
  10    -42.4449484 -0.188979E-07  0.710E-04    0.61      28.2  T
  11    -42.4449484 -0.110010E-07  0.192E-04    0.61     103.9  T
     SCC iter.                  ...        0 min,  0.016 sec
     gradient                   ...        0 min,  0.011 sec
 * total energy  :   -41.9034357 Eh     change       -0.1815329E-01 Eh
   gradient norm :     0.1624906 Eh/α   predicted    -0.1332828E-01 ( -26.58%)
   displ. norm   :     0.5126550 α      lambda       -0.3317627E-01
   maximum displ.:     0.2007028 α      in ANC's #18, #22, #12, ...
 * RMSD in coord.:     1.1655810 α      energy gain  -0.1142507E+02 Eh

generating ANC from model Hessian ...
Using Lindh-Hessian (1995)
 Shifting diagonal of input Hessian by    1.5443294048823442E-002
 Lowest  eigenvalues of input Hessian
    0.010000    0.012516    0.015320    0.000000    0.000000    0.000000
    0.000000    0.000000    0.000000    0.015496    0.016026    0.017277
    0.017684    0.019786    0.023782    0.024246    0.025325    0.026711
 Highest eigenvalues
    2.053435    2.265412    2.358334    2.467913    2.742081    3.019249


........................................................................
.............................. CYCLE   21 ..............................
........................................................................

 iter      E             dE          RMSdq      gap      omega  full diag
   1    -42.5006227 -0.425006E+02  0.523E-01    0.61       0.0  T
   2    -42.4486927  0.519300E-01  0.120E+00    1.25       1.0  T
   3    -42.5044337 -0.557410E-01  0.279E-01    0.67       1.0  T
   4    -42.5045994 -0.165686E-03  0.179E-01    0.77       1.0  T
   5    -42.5050671 -0.467658E-03  0.675E-02    0.72       1.0  T
   6    -42.5052000 -0.132920E-03  0.275E-02    0.71       1.0  T
   7    -42.5052136 -0.135891E-04  0.146E-02    0.72       1.4  T
   8    -42.5052180 -0.441434E-05  0.586E-03    0.72       3.4  T
   9    -42.5052189 -0.857815E-06  0.131E-03    0.72      15.2  T
  10    -42.5052189 -0.188594E-07  0.822E-04    0.72      24.3  T
  11    -42.5052189 -0.110744E-07  0.309E-04    0.72      64.7  T
     SCC iter.                  ...        0 min,  0.016 sec
     gradient                   ...        0 min,  0.011 sec
 * total energy  :   -41.9274131 Eh     change       -0.2397735E-01 Eh
   gradient norm :     0.1526910 Eh/α   predicted     0.0000000E+00 (-100.00%)
   displ. norm   :     0.6682208 α      lambda       -0.6670959E-01
   maximum displ.:     0.4518878 α      in ANC's #16, #20, #17, ...

........................................................................
.............................. CYCLE   22 ..............................
........................................................................

 iter      E             dE          RMSdq      gap      omega  full diag
   1    -42.5303471 -0.425303E+02  0.789E-01    0.93       0.0  T
   2    -42.5054195  0.249276E-01  0.880E-01    0.49       1.0  T
   3    -42.4929246  0.124949E-01  0.113E+00    1.36       1.0  T
   4    -42.5302500 -0.373254E-01  0.374E-01    0.92       1.0  T
   5    -42.5329340 -0.268400E-02  0.149E-01    0.89       1.0  T
   6    -42.5333888 -0.454812E-03  0.797E-02    0.87       1.0  T
   7    -42.5335694 -0.180590E-03  0.112E-02    0.84       1.8  T
   8    -42.5335703 -0.843984E-06  0.643E-03    0.84       3.1  T
   9    -42.5335712 -0.914470E-06  0.194E-03    0.84      10.3  T
  10    -42.5335712 -0.733696E-07  0.420E-04    0.84      47.6  T
  11    -42.5335712  0.215679E-08  0.430E-04    0.84      46.5  T
     SCC iter.                  ...        0 min,  0.015 sec
     gradient                   ...        0 min,  0.011 sec
 * total energy  :   -41.9819860 Eh     change       -0.5457293E-01 Eh
   gradient norm :     0.0867424 Eh/α   predicted    -0.4825938E-01 ( -11.57%)
   displ. norm   :     0.7855496 α      lambda       -0.5155296E-01
   maximum displ.:     0.5939773 α      in ANC's #16, #17, #20, ...

........................................................................
.............................. CYCLE   23 ..............................
........................................................................

 iter      E             dE          RMSdq      gap      omega  full diag
   1    -42.5639315 -0.425639E+02  0.746E-01    1.01       0.0  T
   2    -42.5485630  0.153684E-01  0.759E-01    0.63       1.0  T
   3    -42.5338278  0.147353E-01  0.101E+00    1.45       1.0  T
   4    -42.5661717 -0.323440E-01  0.259E-01    0.95       1.0  T
   5    -42.5670202 -0.848459E-03  0.101E-01    0.97       1.0  T
   6    -42.5672603 -0.240165E-03  0.356E-02    0.94       1.0  T
   7    -42.5672899 -0.295549E-04  0.116E-02    0.93       1.7  T
   8    -42.5672913 -0.137101E-05  0.367E-03    0.93       5.4  T
   9    -42.5672916 -0.312591E-06  0.156E-03    0.93      12.8  T
  10    -42.5672916 -0.178760E-07  0.786E-04    0.93      25.4  T
  11    -42.5672916 -0.105385E-07  0.242E-04    0.93      82.8  T
     SCC iter.                  ...        0 min,  0.015 sec
     gradient                   ...        0 min,  0.011 sec
 * total energy  :   -42.0258882 Eh     change       -0.4390222E-01 Eh
   gradient norm :     0.0917004 Eh/α   predicted    -0.4168289E-01 (  -5.06%)
   displ. norm   :     0.8387815 α      lambda       -0.4491743E-01
   maximum displ.:     0.6463901 α      in ANC's #16, #17, #13, ...

........................................................................
.............................. CYCLE   24 ..............................
........................................................................

 iter      E             dE          RMSdq      gap      omega  full diag
   1    -42.5938165 -0.425938E+02  0.840E-01    1.03       0.0  T
   2    -42.5958814 -0.206495E-02  0.542E-01    1.00       1.0  T
   3    -42.5886972  0.718424E-02  0.640E-01    1.33       1.0  T
   4    -42.5928305 -0.413332E-02  0.474E-01    0.81       1.0  T
   5    -42.6001298 -0.729928E-02  0.144E-01    1.11       1.0  T
   6    -42.6006477 -0.517873E-03  0.299E-02    1.06       1.0  T
   7    -42.6006670 -0.192726E-04  0.130E-02    1.05       1.5  T
   8    -42.6006684 -0.142914E-05  0.529E-03    1.05       3.8  T
   9    -42.6006688 -0.468247E-06  0.171E-03    1.05      11.7  T
  10    -42.6006689 -0.416618E-07  0.823E-04    1.05      24.3  T
  11    -42.6006689 -0.327731E-08  0.335E-04    1.05      59.7  T
     SCC iter.                  ...        0 min,  0.016 sec
     gradient                   ...        0 min,  0.011 sec
 * total energy  :   -42.0652482 Eh     change       -0.3935994E-01 Eh
   gradient norm :     0.1199257 Eh/α   predicted    -0.3825985E-01 (  -2.79%)
   displ. norm   :     0.7693337 α      lambda       -0.4011721E-01
   maximum displ.:     0.5544065 α      in ANC's #16, #17, #13, ...

........................................................................
.............................. CYCLE   25 ..............................
........................................................................

 iter      E             dE          RMSdq      gap      omega  full diag
   1    -42.6337011 -0.426337E+02  0.727E-01    1.00       0.0  T
   2    -42.6361198 -0.241870E-02  0.580E-01    1.21       1.0  T
   3    -42.6350709  0.104886E-02  0.460E-01    0.93       1.0  T
   4    -42.6303681  0.470281E-02  0.588E-01    1.42       1.0  T
   5    -42.6414322 -0.110640E-01  0.682E-02    1.15       1.0  T
   6    -42.6415729 -0.140738E-03  0.167E-02    1.13       1.2  T
   7    -42.6415751 -0.224231E-05  0.872E-03    1.13       2.3  T
   8    -42.6415754 -0.258317E-06  0.313E-03    1.13       6.4  T
   9    -42.6415756 -0.154027E-06  0.894E-04    1.13      22.4  T
  10    -42.6415756 -0.256590E-08  0.516E-04    1.13      38.7  T
     SCC iter.                  ...        0 min,  0.014 sec
     gradient                   ...        0 min,  0.011 sec
 * total energy  :   -42.0875613 Eh     change       -0.2231317E-01 Eh
   gradient norm :     0.1211002 Eh/α   predicted    -0.3193081E-01 (  43.10%)
   displ. norm   :     0.4738271 α      lambda       -0.3487004E-01
   maximum displ.:     0.1691611 α      in ANC's #20, #22, #29, ...

........................................................................
.............................. CYCLE   26 ..............................
........................................................................

 iter      E             dE          RMSdq      gap      omega  full diag
   1    -42.6513088 -0.426513E+02  0.476E-01    1.18       0.0  T
   2    -42.6389769  0.123320E-01  0.703E-01    0.83       1.0  T
   3    -42.6504354 -0.114586E-01  0.364E-01    1.27       1.0  T
   4    -42.6525357 -0.210028E-02  0.153E-01    1.07       1.0  T
   5    -42.6531256 -0.589904E-03  0.533E-02    1.13       1.0  T
   6    -42.6532038 -0.782369E-04  0.125E-02    1.13       1.6  T
   7    -42.6532042 -0.391969E-06  0.710E-03    1.13       2.8  T
   8    -42.6532047 -0.445450E-06  0.270E-03    1.13       7.4  T
   9    -42.6532048 -0.110985E-06  0.119E-03    1.13      16.8  T
  10    -42.6532048 -0.104130E-07  0.489E-04    1.13      40.9  T
  11    -42.6532048 -0.237582E-08  0.177E-04    1.13     113.0  T
     SCC iter.                  ...        0 min,  0.016 sec
     gradient                   ...        0 min,  0.011 sec
 * total energy  :   -42.1017022 Eh     change       -0.1414086E-01 Eh
   gradient norm :     0.1088804 Eh/α   predicted    -0.2134942E-01 (  50.98%)
   displ. norm   :     0.4656423 α      lambda       -0.1883088E-01
   maximum displ.:     0.2507742 α      in ANC's #8, #12, #1, ...

........................................................................
.............................. CYCLE   27 ..............................
........................................................................

 iter      E             dE          RMSdq      gap      omega  full diag
   1    -42.6459734 -0.426460E+02  0.523E-01    1.19       0.0  T
   2    -42.6401365  0.583693E-02  0.531E-01    0.92       1.0  T
   3    -42.6358718  0.426470E-02  0.591E-01    1.43       1.0  T
   4    -42.6462096 -0.103378E-01  0.160E-01    1.09       1.0  T
   5    -42.6470052 -0.795626E-03  0.413E-02    1.14       1.0  T
   6    -42.6470432 -0.379504E-04  0.170E-02    1.14       1.2  T
   7    -42.6470486 -0.546204E-05  0.607E-03    1.13       3.3  T
   8    -42.6470488 -0.178350E-06  0.357E-03    1.13       5.6  T
   9    -42.6470493 -0.449861E-06  0.794E-04    1.13      25.2  T
  10    -42.6470493 -0.230889E-08  0.502E-04    1.13      39.9  T
     SCC iter.                  ...        0 min,  0.014 sec
     gradient                   ...        0 min,  0.011 sec
 * total energy  :   -42.1044463 Eh     change       -0.2744143E-02 Eh
   gradient norm :     0.0955413 Eh/α   predicted    -0.1145694E-01 ( 317.51%)
   displ. norm   :     0.4308987 α      lambda       -0.2108996E-01
   maximum displ.:     0.1768568 α      in ANC's #16, #3, #1, ...

........................................................................
.............................. CYCLE   28 ..............................
........................................................................

 iter      E             dE          RMSdq      gap      omega  full diag
   1    -42.6489206 -0.426489E+02  0.496E-01    1.09       0.0  T
   2    -42.6486847  0.235910E-03  0.378E-01    1.24       1.0  T
   3    -42.6423861  0.629858E-02  0.474E-01    0.90       1.0  T
   4    -42.6455415 -0.315539E-02  0.396E-01    1.32       1.0  T
   5    -42.6503223 -0.478083E-02  0.323E-02    1.15       1.0  T
   6    -42.6503493 -0.270307E-04  0.147E-02    1.14       1.4  T
   7    -42.6503539 -0.454905E-05  0.569E-03    1.13       3.5  T
   8    -42.6503541 -0.218038E-06  0.370E-03    1.13       5.4  T
   9    -42.6503545 -0.342755E-06  0.153E-03    1.13      13.0  T
  10    -42.6503545 -0.543685E-07  0.581E-04    1.14      34.4  T
  11    -42.6503545 -0.476584E-08  0.279E-04    1.14      71.6  T
     SCC iter.                  ...        0 min,  0.016 sec
     gradient                   ...        0 min,  0.011 sec
 * total energy  :   -42.1113642 Eh     change       -0.6917810E-02 Eh
   gradient norm :     0.0723102 Eh/α   predicted    -0.1250290E-01 (  80.74%)
   displ. norm   :     0.2883161 α      lambda       -0.8309865E-02
   maximum displ.:     0.1233851 α      in ANC's #2, #3, #25, ...

........................................................................
.............................. CYCLE   29 ..............................
........................................................................

 iter      E             dE          RMSdq      gap      omega  full diag
   1    -42.6550813 -0.426551E+02  0.377E-01    1.10       0.0  T
   2    -42.6547186  0.362722E-03  0.272E-01    1.15       1.0  T
   3    -42.6474645  0.725409E-02  0.490E-01    0.88       1.0  T
   4    -42.6538945 -0.643000E-02  0.207E-01    1.22       1.0  T
   5    -42.6555393 -0.164477E-02  0.253E-02    1.11       1.0  T
   6    -42.6555534 -0.140582E-04  0.113E-02    1.10       1.8  T
   7    -42.6555558 -0.249160E-05  0.407E-03    1.10       4.9  T
   8    -42.6555560 -0.138765E-06  0.215E-03    1.10       9.3  T
   9    -42.6555561 -0.119672E-06  0.777E-04    1.10      25.8  T
  10    -42.6555561 -0.746830E-09  0.529E-04    1.10      37.8  T
     SCC iter.                  ...        0 min,  0.014 sec
     gradient                   ...        0 min,  0.011 sec
 * total energy  :   -42.1136289 Eh     change       -0.2264738E-02 Eh
   gradient norm :     0.0644688 Eh/α   predicted    -0.4500321E-02 (  98.71%)
   displ. norm   :     0.4691344 α      lambda       -0.1300830E-01
   maximum displ.:     0.2869516 α      in ANC's #3, #25, #16, ...

........................................................................
.............................. CYCLE   30 ..............................
........................................................................

 iter      E             dE          RMSdq      gap      omega  full diag
   1    -42.6563685 -0.426564E+02  0.662E-01    1.06       0.0  T
   2    -42.6534686  0.289985E-02  0.586E-01    1.21       1.0  T
   3    -42.6419285  0.115401E-01  0.706E-01    0.75       1.0  T
   4    -42.6512259 -0.929745E-02  0.489E-01    1.33       1.0  T
   5    -42.6584588 -0.723281E-02  0.529E-02    1.09       1.0  T
   6    -42.6585316 -0.728177E-04  0.219E-02    1.08       1.0  T
   7    -42.6585438 -0.122749E-04  0.640E-03    1.07       3.1  T
   8    -42.6585437  0.181158E-06  0.482E-03    1.07       4.1  T
   9    -42.6585444 -0.713589E-06  0.101E-03    1.07      19.9  T
  10    -42.6585444  0.303936E-08  0.695E-04    1.07      28.8  T
  11    -42.6585444 -0.124596E-07  0.301E-04    1.07      66.4  T
     SCC iter.                  ...        0 min,  0.016 sec
     gradient                   ...        0 min,  0.011 sec
 * total energy  :   -42.1064317 Eh     change        0.7197158E-02 Eh
   gradient norm :     0.1618130 Eh/α   predicted    -0.7935625E-02 (-210.26%)
   displ. norm   :     0.2615336 α      lambda       -0.2106965E-01
   maximum displ.:     0.1404384 α      in ANC's #25, #3, #2, ...

........................................................................
.............................. CYCLE   31 ..............................
........................................................................

 iter      E             dE          RMSdq      gap      omega  full diag
   1    -42.6508103 -0.426508E+02  0.372E-01    1.04       0.0  T
   2    -42.6511092 -0.298924E-03  0.279E-01    1.02       1.0  T
   3    -42.6497314  0.137782E-02  0.276E-01    1.17       1.0  T
   4    -42.6474711  0.226036E-02  0.350E-01    0.87       1.0  T
   5    -42.6517649 -0.429385E-02  0.404E-02    1.06       1.0  T
   6    -42.6518098 -0.448516E-04  0.133E-02    1.05       1.5  T
   7    -42.6518137 -0.389345E-05  0.552E-03    1.05       3.6  T
   8    -42.6518139 -0.252282E-06  0.194E-03    1.05      10.3  T
   9    -42.6518140 -0.694635E-07  0.858E-04    1.05      23.3  T
  10    -42.6518140 -0.122674E-07  0.385E-04    1.05      52.0  T
     SCC iter.                  ...        0 min,  0.014 sec
     gradient                   ...        0 min,  0.011 sec
 * total energy  :   -42.1177073 Eh     change       -0.1127554E-01 Eh
   gradient norm :     0.0377355 Eh/α   predicted    -0.1125542E-01 (  -0.18%)
   displ. norm   :     0.2492869 α      lambda       -0.3452854E-02
   maximum displ.:     0.1281906 α      in ANC's #16, #5, #4, ...

........................................................................
.............................. CYCLE   32 ..............................
........................................................................

 iter      E             dE          RMSdq      gap      omega  full diag
   1    -42.6556310 -0.426556E+02  0.290E-01    1.09       0.0  T
   2    -42.6552677  0.363331E-03  0.198E-01    1.02       1.0  T
   3    -42.6500080  0.525963E-02  0.407E-01    1.29       1.0  T
   4    -42.6555719 -0.556383E-02  0.881E-02    1.04       1.0  T
   5    -42.6557860 -0.214146E-03  0.166E-02    1.08       1.2  T
   6    -42.6557927 -0.668535E-05  0.688E-03    1.07       2.9  T
   7    -42.6557933 -0.638310E-06  0.286E-03    1.07       7.0  T
   8    -42.6557935 -0.138533E-06  0.106E-03    1.07      19.0  T
   9    -42.6557935 -0.186129E-07  0.462E-04    1.07      43.3  T
  10    -42.6557935 -0.402579E-09  0.268E-04    1.07      74.5  T
     SCC iter.                  ...        0 min,  0.014 sec
     gradient                   ...        0 min,  0.011 sec
 * total energy  :   -42.1176394 Eh     change        0.6783939E-04 Eh
   gradient norm :     0.0514199 Eh/α   predicted    -0.1833735E-02 (*******%)
   displ. norm   :     0.2408744 α      lambda       -0.4030157E-02
   maximum displ.:     0.1648573 α      in ANC's #5, #1, #4, ...

........................................................................
.............................. CYCLE   33 ..............................
........................................................................

 iter      E             dE          RMSdq      gap      omega  full diag
   1    -42.6558142 -0.426558E+02  0.277E-01    1.06       0.0  T
   2    -42.6558657 -0.515122E-04  0.166E-01    1.07       1.0  T
   3    -42.6543527  0.151299E-02  0.207E-01    0.96       1.0  T
   4    -42.6551875 -0.834811E-03  0.143E-01    1.14       1.0  T
   5    -42.6559126 -0.725035E-03  0.118E-02    1.06       1.7  T
   6    -42.6559153 -0.273205E-05  0.482E-03    1.06       4.2  T
   7    -42.6559158 -0.470099E-06  0.196E-03    1.06      10.2  T
   8    -42.6559158 -0.204169E-07  0.856E-04    1.06      23.4  T
   9    -42.6559158 -0.209485E-07  0.290E-04    1.06      68.9  T
     SCC iter.                  ...        0 min,  0.013 sec
     gradient                   ...        0 min,  0.011 sec
 * total energy  :   -42.1189004 Eh     change       -0.1260978E-02 Eh
   gradient norm :     0.0359648 Eh/α   predicted    -0.2132001E-02 (  69.08%)
   displ. norm   :     0.2183888 α      lambda       -0.3373163E-02
   maximum displ.:     0.1375539 α      in ANC's #16, #3, #5, ...

........................................................................
.............................. CYCLE   34 ..............................
........................................................................

 iter      E             dE          RMSdq      gap      omega  full diag
   1    -42.6449560 -0.426450E+02  0.255E-01    1.00       0.0  T
   2    -42.6448450  0.111011E-03  0.174E-01    1.05       1.0  T
   3    -42.6414777  0.336734E-02  0.328E-01    0.85       1.0  T
   4    -42.6448261 -0.334846E-02  0.120E-01    1.07       1.0  T
   5    -42.6452175 -0.391402E-03  0.202E-02    1.01       1.0  T
   6    -42.6452281 -0.105837E-04  0.741E-03    1.02       2.7  T
   7    -42.6452288 -0.636979E-06  0.312E-03    1.01       6.4  T
   8    -42.6452288 -0.663888E-07  0.129E-03    1.01      15.5  T
   9    -42.6452289 -0.410000E-07  0.554E-04    1.02      36.1  T
  10    -42.6452289 -0.234467E-08  0.203E-04    1.02      98.3  T
     SCC iter.                  ...        0 min,  0.014 sec
     gradient                   ...        0 min,  0.011 sec
 * total energy  :   -42.1190711 Eh     change       -0.1706715E-03 Eh
   gradient norm :     0.0266919 Eh/α   predicted    -0.1767023E-02 ( 935.34%)
   displ. norm   :     0.1169214 α      lambda       -0.2026918E-02
   maximum displ.:     0.0664231 α      in ANC's #16, #20, #2, ...

........................................................................
.............................. CYCLE   35 ..............................
........................................................................

 iter      E             dE          RMSdq      gap      omega  full diag
   1    -42.6504786 -0.426505E+02  0.134E-01    1.08       0.0  T
   2    -42.6494906  0.987931E-03  0.187E-01    0.97       1.0  T
   3    -42.6501848 -0.694140E-03  0.125E-01    1.11       1.0  T
   4    -42.6505896 -0.404775E-03  0.246E-02    1.05       1.0  T
   5    -42.6506011 -0.115278E-04  0.613E-03    1.05       3.3  T
   6    -42.6506015 -0.467309E-06  0.325E-03    1.05       6.2  T
   7    -42.6506016 -0.530034E-07  0.175E-03    1.05      11.4  T
   8    -42.6506017 -0.535079E-07  0.485E-04    1.05      41.2  T
   9    -42.6506017 -0.229159E-08  0.279E-04    1.05      71.6  T
     SCC iter.                  ...        0 min,  0.013 sec
     gradient                   ...        0 min,  0.011 sec
 * total energy  :   -42.1201063 Eh     change       -0.1035167E-02 Eh
   gradient norm :     0.0119142 Eh/α   predicted    -0.1027318E-02 (  -0.76%)
   displ. norm   :     0.1561119 α      lambda       -0.7462330E-03
   maximum displ.:     0.1000436 α      in ANC's #2, #3, #19, ...

........................................................................
.............................. CYCLE   36 ..............................
........................................................................

 iter      E             dE          RMSdq      gap      omega  full diag
   1    -42.6521055 -0.426521E+02  0.112E-01    1.08       0.0  T
   2    -42.6517749  0.330574E-03  0.121E-01    1.01       1.0  T
   3    -42.6516672  0.107657E-03  0.127E-01    1.13       1.0  T
   4    -42.6521251 -0.457821E-03  0.447E-02    1.05       1.0  T
   5    -42.6521745 -0.493923E-04  0.614E-03    1.07       3.3  T
   6    -42.6521751 -0.597169E-06  0.278E-03    1.06       7.2  T
   7    -42.6521751 -0.238660E-07  0.113E-03    1.06      17.7  T
   8    -42.6521751 -0.191479E-07  0.428E-04    1.06      46.7  T
   9    -42.6521751 -0.360511E-08  0.207E-04    1.06      96.6  T
     SCC iter.                  ...        0 min,  0.013 sec
     gradient                   ...        0 min,  0.011 sec
 * total energy  :   -42.1199714 Eh     change        0.1348878E-03 Eh
   gradient norm :     0.0180959 Eh/α   predicted    -0.3822115E-03 (-383.36%)
   displ. norm   :     0.1070882 α      lambda       -0.9312317E-03
   maximum displ.:     0.0708861 α      in ANC's #2, #3, #19, ...

........................................................................
.............................. CYCLE   37 ..............................
........................................................................

 iter      E             dE          RMSdq      gap      omega  full diag
   1    -42.6513219 -0.426513E+02  0.697E-02    1.06       0.0  T
   2    -42.6513089  0.129594E-04  0.484E-02    1.04       1.0  T
   3    -42.6510262  0.282667E-03  0.944E-02    1.10       1.0  T
   4    -42.6513101 -0.283829E-03  0.260E-02    1.04       1.0  T
   5    -42.6513333 -0.232788E-04  0.377E-03    1.06       5.3  T
   6    -42.6513336 -0.292961E-06  0.188E-03    1.06      10.6  T
   7    -42.6513337 -0.278443E-07  0.715E-04    1.06      28.0  T
   8    -42.6513337 -0.108022E-07  0.184E-04    1.06     108.6  T
     SCC iter.                  ...        0 min,  0.012 sec
     gradient                   ...        0 min,  0.011 sec
 * total energy  :   -42.1205015 Eh     change       -0.5301732E-03 Eh
   gradient norm :     0.0105847 Eh/α   predicted    -0.4709604E-03 ( -11.17%)
   displ. norm   :     0.1761329 α      lambda       -0.4618170E-03
   maximum displ.:     0.1366993 α      in ANC's #2, #3, #20, ...

........................................................................
.............................. CYCLE   38 ..............................
........................................................................

 iter      E             dE          RMSdq      gap      omega  full diag
   1    -42.6500801 -0.426501E+02  0.807E-02    1.09       0.0  T
   2    -42.6493312  0.748960E-03  0.161E-01    0.99       1.0  T
   3    -42.6500911 -0.759930E-03  0.616E-02    1.10       1.0  T
   4    -42.6501875 -0.964120E-04  0.275E-02    1.06       1.0  T
   5    -42.6501998 -0.123305E-04  0.571E-03    1.07       3.5  T
   6    -42.6502005 -0.643713E-06  0.172E-03    1.07      11.7  T
   7    -42.6502005 -0.406459E-07  0.644E-04    1.07      31.1  T
   8    -42.6502005 -0.195219E-08  0.253E-04    1.07      79.1  T
     SCC iter.                  ...        0 min,  0.012 sec
     gradient                   ...        0 min,  0.011 sec
 * total energy  :   -42.1207633 Eh     change       -0.2618059E-03 Eh
   gradient norm :     0.0109718 Eh/α   predicted    -0.2380742E-03 (  -9.06%)
   displ. norm   :     0.3985902 α      lambda       -0.6052862E-03
   maximum displ.:     0.3317908 α      in ANC's #2, #3, #1, ...

........................................................................
.............................. CYCLE   39 ..............................
........................................................................

 iter      E             dE          RMSdq      gap      omega  full diag
   1    -42.6486006 -0.426486E+02  0.926E-02    1.13       0.0  T
   2    -42.6456186  0.298203E-02  0.301E-01    0.93       1.0  T
   3    -42.6488218 -0.320324E-02  0.297E-02    1.09       1.0  T
   4    -42.6488151  0.677925E-05  0.163E-02    1.08       1.2  T
   5    -42.6488222 -0.708772E-05  0.285E-03    1.09       7.0  T
   6    -42.6488223 -0.138588E-06  0.173E-03    1.09      11.5  T
   7    -42.6488224 -0.674998E-07  0.603E-04    1.09      33.2  T
   8    -42.6488224 -0.481598E-08  0.224E-04    1.09      89.1  T
     SCC iter.                  ...        0 min,  0.012 sec
     gradient                   ...        0 min,  0.011 sec
 * total energy  :   -42.1213679 Eh     change       -0.6045315E-03 Eh
   gradient norm :     0.0160761 Eh/α   predicted    -0.3507256E-03 ( -41.98%)
   displ. norm   :     0.9575732 α      lambda       -0.1586364E-02
   maximum displ.:     0.7967832 α      in ANC's #2, #3, #6, ...

........................................................................
.............................. CYCLE   40 ..............................
........................................................................

 iter      E             dE          RMSdq      gap      omega  full diag
   1    -42.6424237 -0.426424E+02  0.234E-01    1.27       0.0  T
   2    -42.6203393  0.220845E-01  0.819E-01    0.75       1.0  T
   3    -42.6440833 -0.237441E-01  0.877E-02    1.14       1.0  T
   4    -42.6440487  0.346438E-04  0.482E-02    1.13       1.0  T
   5    -42.6441054 -0.567229E-04  0.199E-02    1.14       1.0  T
   6    -42.6441164 -0.110361E-04  0.721E-03    1.15       2.8  T
   7    -42.6441180 -0.159250E-05  0.112E-03    1.15      17.9  T
   8    -42.6441180  0.248840E-07  0.105E-03    1.15      19.0  T
   9    -42.6441180 -0.356328E-07  0.340E-04    1.15      58.8  T
  10    -42.6441180 -0.226272E-08  0.930E-05    1.15     215.1  T
     SCC iter.                  ...        0 min,  0.021 sec
     gradient                   ...        0 min,  0.011 sec
 * total energy  :   -42.1226180 Eh     change       -0.1250165E-02 Eh
   gradient norm :     0.0510615 Eh/α   predicted    -0.1520478E-02 (  21.62%)
   displ. norm   :     0.2334777 α      lambda       -0.9394561E-03
   maximum displ.:     0.1084340 α      in ANC's #17, #16, #6, ...

........................................................................
.............................. CYCLE   41 ..............................
........................................................................

 iter      E             dE          RMSdq      gap      omega  full diag
   1    -42.6449072 -0.426449E+02  0.255E-01    1.11       0.0  T
   2    -42.6446153  0.291836E-03  0.292E-01    1.07       1.0  T
   3    -42.6464185 -0.180313E-02  0.135E-01    1.16       1.0  T
   4    -42.6456887  0.729738E-03  0.175E-01    1.02       1.0  T
   5    -42.6467090 -0.102027E-02  0.357E-02    1.13       1.0  T
   6    -42.6467431 -0.340796E-04  0.604E-03    1.11       3.3  T
   7    -42.6467435 -0.448705E-06  0.301E-03    1.11       6.6  T
   8    -42.6467434  0.888630E-07  0.239E-03    1.11       8.4  T
   9    -42.6467436 -0.175609E-06  0.473E-04    1.11      42.3  T
  10    -42.6467436 -0.287089E-08  0.196E-04    1.11     102.3  T
     SCC iter.                  ...        0 min,  0.014 sec
     gradient                   ...        0 min,  0.011 sec
 * total energy  :   -42.1186077 Eh     change        0.4010293E-02 Eh
   gradient norm :     0.0907079 Eh/α   predicted    -0.4953420E-03 (-112.35%)
   displ. norm   :     0.2262685 α      lambda       -0.8559508E-02
   maximum displ.:     0.1003169 α      in ANC's #2, #17, #16, ...

........................................................................
.............................. CYCLE   42 ..............................
........................................................................

 iter      E             dE          RMSdq      gap      omega  full diag
   1    -42.6418145 -0.426418E+02  0.240E-01    1.21       0.0  T
   2    -42.6401056  0.170894E-02  0.351E-01    1.04       1.0  T
   3    -42.6423795 -0.227387E-02  0.180E-01    1.27       1.0  T
   4    -42.6430693 -0.689817E-03  0.124E-01    1.12       1.0  T
   5    -42.6433900 -0.320737E-03  0.326E-02    1.16       1.0  T
   6    -42.6434145 -0.245065E-04  0.893E-03    1.17       2.2  T
   7    -42.6434166 -0.205306E-05  0.278E-03    1.18       7.2  T
   8    -42.6434167 -0.978935E-07  0.857E-04    1.18      23.3  T
   9    -42.6434167 -0.122476E-07  0.413E-04    1.18      48.4  T
     SCC iter.                  ...        0 min,  0.013 sec
     gradient                   ...        0 min,  0.011 sec
 * total energy  :   -42.1230380 Eh     change       -0.4430264E-02 Eh
   gradient norm :     0.0404407 Eh/α   predicted    -0.4498887E-02 (   1.55%)
   displ. norm   :     0.7982348 α      lambda       -0.8274802E-03
   maximum displ.:     0.6733827 α      in ANC's #2, #3, #13, ...
 * RMSD in coord.:     0.9138296 α      energy gain  -0.2196023E+00 Eh

generating ANC from model Hessian ...
Using Lindh-Hessian (1995)
 Shifting diagonal of input Hessian by    9.5963860161860648E-003
 Lowest  eigenvalues of input Hessian
    0.000000    0.000000    0.000000    0.000000    0.000000    0.000000
    0.010000    0.010505    0.011291    0.011596    0.012120    0.012703
    0.016047    0.016823    0.019282    0.020682    0.020725    0.026759
 Highest eigenvalues
    2.122075    2.197035    2.237591    2.309971    2.389642    3.233278


........................................................................
.............................. CYCLE   43 ..............................
........................................................................

 iter      E             dE          RMSdq      gap      omega  full diag
   1    -42.6344704 -0.426345E+02  0.264E-01    1.45       0.0  T
   2    -42.6092017  0.252687E-01  0.877E-01    0.82       1.0  T
   3    -42.6368425 -0.276407E-01  0.113E-01    1.25       1.0  T
   4    -42.6369048 -0.623208E-04  0.476E-02    1.27       1.0  T
   5    -42.6369408 -0.360230E-04  0.239E-02    1.27       1.0  T
   6    -42.6369600 -0.191535E-04  0.686E-03    1.28       2.9  T
   7    -42.6369611 -0.110785E-05  0.235E-03    1.29       8.5  T
   8    -42.6369612 -0.107223E-06  0.146E-03    1.29      13.7  T
   9    -42.6369613 -0.739677E-07  0.423E-04    1.29      47.3  T
  10    -42.6369613 -0.360933E-08  0.113E-04    1.29     177.7  T
     SCC iter.                  ...        0 min,  0.014 sec
     gradient                   ...        0 min,  0.011 sec
 * total energy  :   -42.1226912 Eh     change        0.3467960E-03 Eh
   gradient norm :     0.0781136 Eh/α   predicted     0.0000000E+00 (-100.00%)
   displ. norm   :     0.4055005 α      lambda       -0.1039380E-01
   maximum displ.:     0.2643249 α      in ANC's #4, #8, #3, ...

........................................................................
.............................. CYCLE   44 ..............................
........................................................................

 iter      E             dE          RMSdq      gap      omega  full diag
   1    -42.6457187 -0.426457E+02  0.560E-01    1.41       0.0  T
   2    -42.6450415  0.677122E-03  0.380E-01    1.27       1.0  T
   3    -42.6312200  0.138215E-01  0.602E-01    1.82       1.0  T
   4    -42.6458823 -0.146623E-01  0.572E-02    1.39       1.0  T
   5    -42.6459481 -0.657308E-04  0.160E-02    1.38       1.2  T
   6    -42.6459507 -0.267754E-05  0.956E-03    1.37       2.1  T
   7    -42.6459514 -0.708206E-06  0.572E-03    1.37       3.5  T
   8    -42.6459526 -0.116713E-05  0.854E-04    1.37      23.4  T
   9    -42.6459526 -0.140805E-08  0.566E-04    1.37      35.4  T
  10    -42.6459526 -0.872433E-08  0.158E-04    1.37     126.8  T
     SCC iter.                  ...        0 min,  0.014 sec
     gradient                   ...        0 min,  0.011 sec
 * total energy  :   -42.1283283 Eh     change       -0.5637033E-02 Eh
   gradient norm :     0.0375067 Eh/α   predicted    -0.6051431E-02 (   7.35%)
   displ. norm   :     0.5158491 α      lambda       -0.7068432E-02
   maximum displ.:     0.4136547 α      in ANC's #3, #4, #30, ...

........................................................................
.............................. CYCLE   45 ..............................
........................................................................

 iter      E             dE          RMSdq      gap      omega  full diag
   1    -42.6586005 -0.426586E+02  0.418E-01    1.53       0.0  T
   2    -42.6573177  0.128283E-02  0.327E-01    1.34       1.0  T
   3    -42.6537629  0.355473E-02  0.388E-01    1.74       1.0  T
   4    -42.6588485 -0.508562E-02  0.418E-02    1.47       1.0  T
   5    -42.6588997 -0.511692E-04  0.146E-02    1.48       1.4  T
   6    -42.6589031 -0.337778E-05  0.823E-03    1.47       2.4  T
   7    -42.6589030  0.573624E-07  0.483E-03    1.47       4.1  T
   8    -42.6589038 -0.783163E-06  0.683E-04    1.47      29.3  T
   9    -42.6589038  0.119122E-08  0.503E-04    1.47      39.8  T
     SCC iter.                  ...        0 min,  0.013 sec
     gradient                   ...        0 min,  0.011 sec
 * total energy  :   -42.1319512 Eh     change       -0.3622925E-02 Eh
   gradient norm :     0.0423894 Eh/α   predicted    -0.4474675E-02 (  23.51%)
   displ. norm   :     0.5729647 α      lambda       -0.6094826E-02
   maximum displ.:     0.3502336 α      in ANC's #3, #8, #4, ...

........................................................................
.............................. CYCLE   46 ..............................
........................................................................

 iter      E             dE          RMSdq      gap      omega  full diag
   1    -42.6588635 -0.426589E+02  0.429E-01    1.91       0.0  T
   2    -42.6506529  0.821062E-02  0.584E-01    1.31       1.0  T
   3    -42.6612445 -0.105917E-01  0.208E-01    1.74       1.0  T
   4    -42.6614053 -0.160714E-03  0.666E-02    1.69       1.0  T
   5    -42.6614726 -0.673490E-04  0.190E-02    1.67       1.1  T
   6    -42.6614802 -0.764245E-05  0.105E-02    1.68       1.9  T
   7    -42.6614826 -0.239012E-05  0.310E-03    1.69       6.5  T
   8    -42.6614827 -0.687106E-07  0.938E-04    1.69      21.3  T
   9    -42.6614827 -0.248338E-07  0.415E-04    1.69      48.2  T
     SCC iter.                  ...        0 min,  0.013 sec
     gradient                   ...        0 min,  0.011 sec
 * total energy  :   -42.1382211 Eh     change       -0.6269879E-02 Eh
   gradient norm :     0.0381870 Eh/α   predicted    -0.4047846E-02 ( -35.44%)
   displ. norm   :     0.6196368 α      lambda       -0.7549435E-02
   maximum displ.:     0.4507775 α      in ANC's #3, #8, #4, ...

........................................................................
.............................. CYCLE   47 ..............................
........................................................................

 iter      E             dE          RMSdq      gap      omega  full diag
   1    -42.6624531 -0.426625E+02  0.315E-01    2.44       0.0  T
   2    -42.6601670  0.228615E-02  0.454E-01    1.76       1.0  T
   3    -42.6659451 -0.577814E-02  0.160E-01    2.07       1.0  T
   4    -42.6658414  0.103698E-03  0.102E-01    2.04       1.0  T
   5    -42.6659869 -0.145457E-03  0.293E-02    2.08       1.0  T
   6    -42.6660051 -0.182280E-04  0.136E-02    2.09       1.5  T
   7    -42.6660074 -0.233037E-05  0.526E-03    2.10       3.8  T
   8    -42.6660083 -0.846326E-06  0.225E-03    2.10       8.9  T
   9    -42.6660084 -0.160226E-06  0.907E-04    2.10      22.0  T
  10    -42.6660084  0.102433E-07  0.643E-04    2.10      31.1  T
     SCC iter.                  ...        0 min,  0.014 sec
     gradient                   ...        0 min,  0.011 sec
 * total energy  :   -42.1465396 Eh     change       -0.8318578E-02 Eh
   gradient norm :     0.0559907 Eh/α   predicted    -0.5224033E-02 ( -37.20%)
   displ. norm   :     0.6416606 α      lambda       -0.1041033E-01
   maximum displ.:     0.4243560 α      in ANC's #3, #8, #4, ...

........................................................................
.............................. CYCLE   48 ..............................
........................................................................

 iter      E             dE          RMSdq      gap      omega  full diag
   1    -42.6658240 -0.426658E+02  0.392E-01    2.65       0.0  T
   2    -42.6673547 -0.153069E-02  0.283E-01    2.69       1.0  T
   3    -42.6676103 -0.255650E-03  0.153E-01    2.68       1.0  T
   4    -42.6676398 -0.294277E-04  0.495E-02    2.69       1.0  T
   5    -42.6676708 -0.310320E-04  0.179E-02    2.68       1.1  T
   6    -42.6676719 -0.112513E-05  0.108E-02    2.69       1.9  T
[...]
C           -3.97287492855795        1.29373872796466        0.00799849390425
C           -1.30855026296585        0.72581456871370       -0.00239383767371
O           -2.63266438712965        0.60526156031238        0.01648906502572
N           -0.79554762540890       -0.62187286755366       -0.00553529159720
C           -1.60685302353936       -1.82539674952653       -0.01055323306323
H            4.39846348862938        0.47973366524036        1.00682446446471
H            4.62366486319436        0.17473096560390       -0.72552406728019
H            3.68853191562763        1.59081139889359       -0.17759622883051
H            3.41152593596740       -2.23778532852000        0.00207838659570
H           -3.85469591019132        2.37534628928572        0.00750032638179
H           -4.46354777230795        0.94470898874212       -0.89509101070609
H           -4.46652966913259        0.94414733709564        0.90884269671648
H           -1.40089955600202       -2.42125148299066        0.88026060052055
H           -1.40374481371751       -2.41174161710340       -0.90836075388412
H           -2.65543262353507       -1.54647103162644       -0.00693738747818
H            0.93523724827211       -2.83018230289175       -0.00571337291584

 Bond Distances (Angstroems)
 ---------------------------
C1-N2=1.4382         C1-H15=1.0912        C1-H16=1.0891        C1-H17=1.0895        N2-C1=1.4382         N2-C3=1.3257         
N2-C6=1.3747         C3-N2=1.3257         C3-N4=1.3536         C3-H18=1.0718        N4-C3=1.3536         N4-C5=1.3665         
N4-H25=1.0092        C5-N4=1.3665         C5-C6=1.3875         C5-N13=1.3464        C6-N2=1.3747         C6-C5=1.3875         
C6-C7=1.4504         C7-C6=1.4504         C7-O8=1.1943         C7-N9=1.4626         O8-C7=1.1943         N9-C7=1.4626         
N9-C11=1.2862        C10-O12=1.5067       C10-H19=1.0880       C10-H20=1.0854       C10-H21=1.0851       C11-N9=1.2862        
C11-O12=1.3297       C11-N13=1.4420       O12-C10=1.5067       O12-C11=1.3297       N13-C5=1.3464        N13-C11=1.4420       
N13-C14=1.4515       C14-N13=1.4515       C14-H22=1.0913       C14-H23=1.0914       C14-H24=1.0850       H15-C1=1.0912        
H16-C1=1.0891        H17-C1=1.0895        H18-C3=1.0718        H19-C10=1.0880       H20-C10=1.0854       H21-C10=1.0851       
H22-C14=1.0913       H23-C14=1.0914       H24-C14=1.0850       H25-N4=1.0092        
 C  H  Rav=1.0868 sigma=0.0056  Rmin=1.0718  Rmax=1.0914    10
 C  C  Rav=1.4190 sigma=0.0314  Rmin=1.3875  Rmax=1.4504     2
 N  H  Rav=1.0092 sigma=0.0000  Rmin=1.0092  Rmax=1.0092     1
 N  C  Rav=1.3847 sigma=0.0572  Rmin=1.2862  Rmax=1.4626    10
 O  C  Rav=1.3436 sigma=0.1279  Rmin=1.1943  Rmax=1.5067     3

 selected bond angles (degree)
 --------------------
H15-C1-N2=110.27               H16-C1-N2=110.33               H16-C1-H15=108.85              H17-C1-N2=108.76               
H17-C1-H15=108.74              H17-C1-H16=109.88              C3-N2-C1=127.07                C6-N2-C1=124.81                
C6-N2-C3=108.11                N4-C3-N2=109.65                H18-C3-N2=125.75               H18-C3-N4=124.59               
C5-N4-C3=108.19                H25-N4-C3=125.32               H25-N4-C5=126.50               C6-C5-N4=106.62                
N13-C5-N4=127.94               N13-C5-C6=125.44               C5-C6-N2=107.43                C7-C6-N2=131.38                
C7-C6-C5=121.18                O8-C7-C6=128.74                N9-C7-C6=108.85                N9-C7-O8=122.41                
C11-N9-C7=129.94               H19-C10-O12=110.95             H20-C10-O12=105.06             H20-C10-H19=111.62             
H21-C10-O12=104.64             H21-C10-H19=111.72             H21-C10-H20=112.43             

 selected dihedral angles (degree)
 ---------------------------------
C3-N2-C1-H15=288.22           C3-N2-C1-H16= 48.48           C3-N2-C1-H17=169.07           C6-N2-C1-H15=106.99           
C6-N2-C1-H16=227.26           C6-N2-C1-H17=347.84           N4-C3-N2-C1=178.99            N4-C3-N2-C6=  0.05            
H18-C3-N2-C1=358.86           H18-C3-N2-C6=179.92           C5-N4-C3-N2=359.95            C5-N4-C3-H18=180.08           
H25-N4-C3-N2=179.72           H25-N4-C3-H18=359.85          C6-C5-N4-C3=  0.03            C6-C5-N4-H25=180.26           
N13-C5-N4-C3=179.97           N13-C5-N4-H25=  0.20          C5-C6-N2-C1=181.00            C5-C6-N2-C3=359.97            
C7-C6-N2-C1=  2.19            C7-C6-N2-C3=181.15            N2-C6-C5-N4=  0.00            N2-C6-C5-N13=180.06           
C7-C6-C5-N4=178.96            C7-C6-C5-N13=359.02           O8-C7-C6-N2=  0.21            O8-C7-C6-C5=181.52            
N9-C7-C6-N2=180.04            N9-C7-C6-C5=  1.36            C11-N9-C7-C6=359.20           C11-N9-C7-O8=179.05           
           -------------------------------------------------
          |                Final Singlepoint                |
           -------------------------------------------------

          ...................................................
          :                      SETUP                      :
          :.................................................:
          :  # basis functions                  67          :
          :  # atomic orbitals                  67          :
          :  # shells                           39          :
          :  # electrons                        74          :
          :  max. iterations                   250          :
          :  Hamiltonian                  GFN2-xTB          :
          :  restarted?                      false          :
          :  GBSA solvation                  false          :
          :  PC potential                    false          :
          :  electronic temp.         5000.0000000     K    :
          :  accuracy                    1.0000000          :
          :  -> integral cutoff          0.2500000E+02      :
          :  -> integral neglect         0.1000000E-07      :
          :  -> SCF convergence          0.1000000E-05 Eh   :
          :  -> wf. convergence          0.1000000E-03 e    :
          :  Broyden damping             0.4000000          :
          ...................................................

 iter      E             dE          RMSdq      gap      omega  full diag
   1    -42.6918735 -0.426919E+02  0.112E-04    2.68       0.0  T
   2    -42.6918735 -0.694413E-10  0.724E-05    2.68     276.3  T
   3    -42.6918735 -0.506404E-10  0.454E-05    2.68     440.2  T

   *** convergence criteria satisfied after 3 iterations ***

         #    Occupation            Energy/Eh            Energy/eV
      -------------------------------------------------------------
         1        2.0000           -0.9029995             -24.5719
       ...           ...                  ...                  ...
        31        1.9997           -0.6117579             -16.6468
        32        1.9997           -0.6088810             -16.5685
        33        1.9990           -0.5921637             -16.1136
        34        1.9925           -0.5600939             -15.2409
        35        1.9886           -0.5533965             -15.0587
        36        1.9805           -0.5449168             -14.8279
        37        1.9264           -0.5234102             -14.2427 (HOMO)
        38        0.0988           -0.4249085             -11.5623 (LUMO)
        39        0.0112           -0.3896637             -10.6033
        40        0.0041           -0.3735815             -10.1657
        41        0.0000           -0.2719389              -7.3998
        42        0.0000           -0.2712952              -7.3823
       ...           ...                  ...                  ...
        67                          0.5954509              16.2030
      -------------------------------------------------------------
                  HL-Gap            0.0985017 Eh            2.6804 eV
             Fermi-level           -0.4717251 Eh          -12.8363 eV

 SCC (total)                   0 d,  0 h,  0 min,  0.024 sec
 SCC setup                      ...        0 min,  0.000 sec (  0.783%)
 Dispersion                     ...        0 min,  0.000 sec (  0.851%)
 classical contributions        ...        0 min,  0.000 sec (  0.315%)
 integral evaluation            ...        0 min,  0.004 sec ( 18.464%)
 iterations                     ...        0 min,  0.005 sec ( 20.787%)
 molecular gradient             ...        0 min,  0.014 sec ( 58.129%)
 printout                       ...        0 min,  0.000 sec (  0.612%)

         :::::::::::::::::::::::::::::::::::::::::::::::::::::
         ::                     SUMMARY                     ::
         :::::::::::::::::::::::::::::::::::::::::::::::::::::
         :: total energy             -42.183130179060 Eh    ::
         :: gradient norm              0.002567850774 Eh/a0 ::
         :: HOMO-LUMO gap              2.680368736796 eV    ::
         ::.................................................::
         :: SCC energy               -42.691873517431 Eh    ::
         :: -> isotropic ES            0.132143133323 Eh    ::
         :: -> anisotropic ES         -0.005056223937 Eh    ::
         :: -> anisotropic XC          0.016634719829 Eh    ::
         :: -> dispersion             -0.021677997396 Eh    ::
         :: repulsion energy           0.507730447384 Eh    ::
         :: add. restraining           0.000987758905 Eh    ::
         :: total charge               1.000000000000 e     ::
         :::::::::::::::::::::::::::::::::::::::::::::::::::::

           -------------------------------------------------
          |                Property Printout                |
           -------------------------------------------------

    * Orbital Energies and Occupations

         #    Occupation            Energy/Eh            Energy/eV
      -------------------------------------------------------------
         1        2.0000           -0.9029995             -24.5719
       ...           ...                  ...                  ...
        25        2.0000           -0.6669226             -18.1479
        26        2.0000           -0.6572162             -17.8838
        27        2.0000           -0.6451256             -17.5548
        28        1.9999           -0.6312488             -17.1772
        29        1.9999           -0.6291753             -17.1207
        30        1.9999           -0.6244722             -16.9928
        31        1.9997           -0.6117579             -16.6468
        32        1.9997           -0.6088810             -16.5685
        33        1.9990           -0.5921637             -16.1136
        34        1.9925           -0.5600939             -15.2409
        35        1.9886           -0.5533965             -15.0587
        36        1.9805           -0.5449168             -14.8279
        37        1.9264           -0.5234102             -14.2427 (HOMO)
        38        0.0988           -0.4249085             -11.5623 (LUMO)
        39        0.0112           -0.3896637             -10.6033
        40        0.0041           -0.3735815             -10.1657
        41        0.0000           -0.2719389              -7.3998
        42        0.0000           -0.2712952              -7.3823
        43                         -0.1904992              -5.1837
        44                         -0.1732575              -4.7146
        45                         -0.1534702              -4.1761
        46                         -0.1069587              -2.9105
        47                         -0.0533833              -1.4526
        48                         -0.0372045              -1.0124
       ...                                ...                  ...
        67                          0.5954509              16.2030
      -------------------------------------------------------------
                  HL-Gap            0.0985017 Eh            2.6804 eV
             Fermi-level           -0.4717251 Eh          -12.8363 eV

     #   Z          covCN         q      C6AA      α(0)
     1   6 C        3.692    -0.092    22.449     6.780
     2   7 N        2.833     0.080    19.854     6.618
     3   6 C        3.049     0.050    26.838     8.496
     4   7 N        2.798    -0.066    22.511     7.047
     5   6 C        3.043     0.118    25.361     8.260
     6   6 C        3.116    -0.020    28.338     8.720
     7   6 C        2.752     0.296    21.980     7.677
     8   8 O        0.857    -0.312    20.000     5.996
     9   7 N        1.833    -0.285    28.234     7.874
    10   6 C        3.607     0.014    20.880     6.602
    11   6 C        2.705     0.309    21.750     7.633
    12   8 O        1.692    -0.249    18.121     5.747
    13   7 N        2.741    -0.058    22.362     7.023
    14   6 C        3.697    -0.072    22.054     6.717
    15   1 H        0.924     0.108     1.714     2.048
    16   1 H        0.925     0.104     1.753     2.071
    17   1 H        0.925     0.134     1.502     1.917
    18   1 H        0.926     0.121     1.603     1.980
    19   1 H        0.925     0.102     1.763     2.077
    20   1 H        0.925     0.109     1.703     2.041
    21   1 H        0.925     0.110     1.695     2.036
    22   1 H        0.924     0.079     1.992     2.207
    23   1 H        0.924     0.079     1.991     2.207
    24   1 H        0.925     0.115     1.656     2.012
    25   1 H        0.860     0.225     0.985     1.555

 Mol. C6AA /au·bohr⁶  :       6538.296975
 Mol. C8AA /au·bohr⁸  :     149956.201906
 Mol. α(0) /au        :        123.339356


Wiberg/Mayer (AO) data.
largest (>0.10) Wiberg bond orders for each atom

 ---------------------------------------------------------------------------
     #   Z sym  total        # sym  WBO       # sym  WBO       # sym  WBO
 ---------------------------------------------------------------------------
     1   6 C    3.917 --     2 N    0.986    16 H    0.965    17 H    0.962
                            15 H    0.956
     2   7 N    3.681 --     3 C    1.395     6 C    1.158     1 C    0.986
     3   6 C    3.854 --     2 N    1.395     4 N    1.267    18 H    0.953
     4   7 N    3.579 --     3 C    1.267     5 C    1.185    25 H    0.920
     5   6 C    3.949 --     6 C    1.356    13 N    1.223     4 N    1.185
     6   6 C    3.904 --     5 C    1.356     2 N    1.158     7 C    1.062
     7   6 C    3.937 --     8 O    1.771     6 C    1.062     9 N    1.019
     8   8 O    2.095 --     7 C    1.771     9 N    0.118
     9   7 N    3.033 --    11 C    1.592     7 C    1.019    12 O    0.135
                             8 O    0.118
    10   6 C    3.852 --    19 H    0.980    20 H    0.971    21 H    0.971
                            12 O    0.881
    11   6 C    3.924 --     9 N    1.592    12 O    1.191    13 N    1.008
    12   8 O    2.324 --    11 C    1.191    10 C    0.881     9 N    0.135
    13   7 N    3.544 --     5 C    1.223    11 C    1.008    14 C    0.978
    14   6 C    3.936 --    13 N    0.978    22 H    0.971    23 H    0.971
                            24 H    0.967
    15   1 H    0.985 --     1 C    0.956
    16   1 H    0.987 --     1 C    0.965
    17   1 H    0.982 --     1 C    0.962
    18   1 H    0.984 --     3 C    0.953
    19   1 H    0.989 --    10 C    0.980
    20   1 H    0.986 --    10 C    0.971
    21   1 H    0.985 --    10 C    0.971
    22   1 H    0.991 --    14 C    0.971
    23   1 H    0.991 --    14 C    0.971
    24   1 H    0.986 --    14 C    0.967
    25   1 H    0.949 --     4 N    0.920
 ---------------------------------------------------------------------------

Topologies differ in total number of bonds
Writing topology from bond orders to xtbtopo.mol

molecular dipole:
                 x           y           z       tot (Debye)
 q only:        0.724      -2.674       0.029
   full:        0.722      -3.332       0.036       8.666
molecular quadrupole (traceless):
                xx          xy          yy          xz          yz          zz
 q only:       39.161     -13.276     -14.803       0.280       0.240     -24.358
  q+dip:       36.595     -16.538     -15.236       0.402       0.321     -21.359
   full:       36.349     -16.656     -16.538       0.415       0.359     -19.811

           -------------------------------------------------
          |                Geometry Summary                 |
           -------------------------------------------------

      molecular mass/u    :      195.1988581
   center of mass at/Å    :        0.2689242       0.2011318      -0.0038057
  moments of inertia/u·Å² :        0.3879515E+03   0.9704057E+03   0.1348583E+04
rotational constants/cm⁻¹ :        0.4345294E-01   0.1737174E-01   0.1250026E-01

 * 22 selected distances

     #   Z          #   Z                                           value/Å
     1   6 C        2   7 N                                       1.4381849
     2   7 N        3   6 C                                       1.3257435
     3   6 C        4   7 N                                       1.3535941
     4   7 N        5   6 C                                       1.3664732
     2   7 N        6   6 C                                       1.3746568
     5   6 C        6   6 C                                       1.3875427
     7   6 C        8   8 O                                       1.1943048
     9   7 N       11   6 C                                       1.2862171
    11   6 C       12   8 O                                       1.3297248
     5   6 C       13   7 N                                       1.3463605
    13   7 N       14   6 C                                       1.4514516 (max)
     1   6 C       15   1 H                                       1.0912134
     1   6 C       16   1 H                                       1.0891381
     1   6 C       17   1 H                                       1.0894519
     3   6 C       18   1 H                                       1.0717957
    10   6 C       19   1 H                                       1.0880449
    10   6 C       20   1 H                                       1.0854273
    10   6 C       21   1 H                                       1.0850943
    14   6 C       22   1 H                                       1.0913337
    14   6 C       23   1 H                                       1.0913807
    14   6 C       24   1 H                                       1.0850493
     4   7 N       25   1 H                                       1.0092034 (min)

 * 5 distinct bonds (by element types)

   Z      Z             #   av. dist./Å        max./Å        min./Å
   1 H    6 C          10     1.0867929     1.0913807     1.0717957
   6 C    6 C           1     1.3875427     1.3875427     1.3875427
   1 H    7 N           1     1.0092034     1.0092034     1.0092034
   6 C    7 N           8     1.3678352     1.4514516     1.2862171
   6 C    8 O           2     1.2620148     1.3297248     1.1943048


optimized geometry written to: xtbopt.xyz


           -------------------------------------------------
          | TOTAL ENERGY              -42.183130179060 Eh   |
          | GRADIENT NORM               0.002567850774 Eh/α |
          | HOMO-LUMO GAP               2.680368736796 eV   |
           -------------------------------------------------

------------------------------------------------------------------------
 * finished run on 2024/06/05 at 19:57:59.286     
------------------------------------------------------------------------
 total:
 * wall-time:     0 d,  0 h,  0 min,  2.315 sec
 *  cpu-time:     0 d,  0 h,  0 min,  1.927 sec
 * ratio c/w:     0.832 speedup
 SCF:
 * wall-time:     0 d,  0 h,  0 min,  0.057 sec
 *  cpu-time:     0 d,  0 h,  0 min,  0.035 sec
 * ratio c/w:     0.612 speedup
 ANC optimizer:
 * wall-time:     0 d,  0 h,  0 min,  2.207 sec
 *  cpu-time:     0 d,  0 h,  0 min,  1.875 sec
 * ratio c/w:     0.850 speedup

