25
 energy: -42.108068701622 gnorm: 0.003092900987 xtb: 6.6.1 (8d0f1dd)
C            3.08736015134559        1.02747522868581        0.24464797249045
N            2.21066581076445        0.03029907390226        0.19072215275198
C            2.46583337935359       -1.29862168984310        0.20654282002866
N            1.29698489421988       -1.99241229910524        0.13417336548793
C            0.27464958618635       -1.09903727403607        0.07386635557690
C            0.82769491844649        0.17034247732621        0.10762121119540
C            0.01217416448005        1.36313772244331        0.06975662734758
O            0.41782411215870        2.49999608125885        0.09263674510546
N           -1.34562649366203        1.04202394866901        0.00471451304562
C           -2.29449817033118        2.14687540364875       -0.01757099165370
C           -1.92159996336335       -0.21401990950086       -0.04166532180485
O           -3.10748951829260       -0.37688261053352       -0.10506251263373
N           -1.04680133269486       -1.32257462123196       -0.01061526467712
C           -1.60391147268207       -2.65930926656226       -0.05747525491459
H            4.13427525111849        0.80585894914005        0.31901481023297
H            5.24297977006941        2.10683991207490       -1.53470652609554
H            2.71862890322727        2.03698879243604        0.22201757869824
H            3.43951082625957       -1.73776286588563        0.27105781713556
H           -1.73159068365573        3.07730429935265       -0.01184213061751
H           -2.91578486687424        2.08310941225992       -0.91081080745939
H           -2.94458776736352        2.09322701720346        0.85604756148960
H           -1.33171715151456       -3.21977766783817        0.83729961114880
H           -1.26083721137349       -3.18487206838504       -0.94928687491005
H           -2.68849519494674       -2.56114206177187       -0.09888718559308
H            1.22478957322447       -2.99882744210750        0.13897534652438
