      -----------------------------------------------------------      
     |                   =====================                   |     
     |                           x T B                           |     
     |                   =====================                   |     
     |                         S. Grimme                         |     
     |          Mulliken Center for Theoretical Chemistry        |     
     |                    University of Bonn                     |     
      -----------------------------------------------------------      

   * xtb version 6.6.1 (8d0f1dd) compiled by 'conda@1efc2f54142f' on 2023-08-01

   xtb is free software: you can redistribute it and/or modify it under
   the terms of the GNU Lesser General Public License as published by
   the Free Software Foundation, either version 3 of the License, or
   (at your option) any later version.
   
   xtb is distributed in the hope that it will be useful,
   but WITHOUT ANY WARRANTY; without even the implied warranty of
   MERCHANTABILITY or FITNESS FOR A PARTICULAR PURPOSE.  See the
   GNU Lesser General Public License for more details.
   
   Cite this work as:
   * C. Bannwarth, E. Caldeweyher, S. Ehlert, A. Hansen, P. Pracht,
     J. Seibert, S. Spicher, S. Grimme, WIREs Comput. Mol. Sci., 2020, 11,
     e01493. DOI: 10.1002/wcms.1493
   
   for GFN2-xTB:
   * C. Bannwarth, S. Ehlert and S. Grimme., J. Chem. Theory Comput., 2019,
     15, 1652-1671. DOI: 10.1021/acs.jctc.8b01176
   for GFN1-xTB:
   * S. Grimme, C. Bannwarth, P. Shushkov, J. Chem. Theory Comput., 2017,
     13, 1989-2009. DOI: 10.1021/acs.jctc.7b00118
   for GFN0-xTB:
   * P. Pracht, E. Caldeweyher, S. Ehlert, S. Grimme, ChemRxiv, 2019, preprint.
     DOI: 10.26434/chemrxiv.8326202.v1
   for GFN-FF:
   * S. Spicher and S. Grimme, Angew. Chem. Int. Ed., 2020, 59, 15665-15673.
     DOI: 10.1002/anie.202004239
   
   for ALPB and GBSA implicit solvation:
   * S. Ehlert, M. Stahn, S. Spicher, S. Grimme, J. Chem. Theory Comput.,
     2021, 17, 4250-4261. DOI: 10.1021/acs.jctc.1c00471
   
   for DFT-D4:
   * E. Caldeweyher, C. Bannwarth and S. Grimme, J. Chem. Phys., 2017,
     147, 034112. DOI: 10.1063/1.4993215
   * E. Caldeweyher, S. Ehlert, A. Hansen, H. Neugebauer, S. Spicher,
     C. Bannwarth and S. Grimme, J. Chem. Phys., 2019, 150, 154122.
     DOI: 10.1063/1.5090222
   * E. Caldeweyher, J.-M. Mewes, S. Ehlert and S. Grimme, Phys. Chem. Chem. Phys.
     2020, 22, 8499-8512. DOI: 10.1039/D0CP00502A
   
   for sTDA-xTB:
   * S. Grimme and C. Bannwarth, J. Chem. Phys., 2016, 145, 054103.
     DOI: 10.1063/1.4959605
   
   in the mass-spec context:
   * V. Asgeirsson, C. Bauer and S. Grimme, Chem. Sci., 2017, 8, 4879.
     DOI: 10.1039/c7sc00601b
   * J. Koopman and S. Grimme, ACS Omega 2019, 4, 12, 15120-15133.
     DOI: 10.1021/acsomega.9b02011
   
   for metadynamics refer to:
   * S. Grimme, J. Chem. Theory Comput., 2019, 155, 2847-2862
     DOI: 10.1021/acs.jctc.9b00143
   
   for SPH calculations refer to:
   * S. Spicher and S. Grimme, J. Chem. Theory Comput., 2021, 17, 1701-1714
     DOI: 10.1021/acs.jctc.0c01306
   
   with help from (in alphabetical order)
   P. Atkinson, C. Bannwarth, F. Bohle, G. Brandenburg, E. Caldeweyher
   M. Checinski, S. Dohm, S. Ehlert, S. Ehrlich, I. Gerasimov, C. Hölzer
   A. Katbashev, J. Koopman, C. Lavigne, S. Lehtola, F. März, M. Müller,
   F. Musil, H. Neugebauer, J. Pisarek, C. Plett, P. Pracht, F. Pultar,
   J. Seibert, P. Shushkov, S. Spicher, M. Stahn, M. Steiner, T. Strunk,
   J. Stückrath, T. Rose, and J. Unsleber
   
 * started run on 2024/06/05 at 19:58:08.831     

           -------------------------------------------------
          |                Calculation Setup                |
           -------------------------------------------------

          program call               : xtb struc.xyz --opt loose --input .xc1 --gfn2
          hostname                   : n-62-21-70
          coordinate file            : struc.xyz
          omp threads                :                     1

   ID    Z sym.   atoms
    1    6 C      1, 3, 5-7, 10, 11, 14
    2    7 N      2, 4, 9, 13
    3    8 O      8, 12
    4    1 H      15-25
constraining bond 3 22 to    5.7133300 Å, actual value:    4.3173805 Å

           -------------------------------------------------
          |                 G F N 2 - x T B                 |
           -------------------------------------------------

        Reference                      10.1021/acs.jctc.8b01176
      * Hamiltonian:
        H0-scaling (s, p, d)           1.850000    2.230000    2.230000
        zeta-weighting                 0.500000
      * Dispersion:
        s8                             2.700000
        a1                             0.520000
        a2                             5.000000
        s9                             5.000000
      * Repulsion:
        kExp                           1.500000    1.000000
        rExp                           1.000000
      * Coulomb:
        alpha                          2.000000
        third order                    shell-resolved
        anisotropic                    true
        a3                             3.000000
        a5                             4.000000
        cn-shift                       1.200000
        cn-exp                         4.000000
        max-rad                        5.000000


          ...................................................
          :                      SETUP                      :
          :.................................................:
          :  # basis functions                  67          :
          :  # atomic orbitals                  67          :
          :  # shells                           39          :
          :  # electrons                        74          :
          :  max. iterations                   250          :
          :  Hamiltonian                  GFN2-xTB          :
          :  restarted?                      false          :
          :  GBSA solvation                  false          :
          :  PC potential                    false          :
          :  electronic temp.         5000.0000000     K    :
          :  accuracy                    1.0000000          :
          :  -> integral cutoff          0.2500000E+02      :
          :  -> integral neglect         0.1000000E-07      :
          :  -> SCF convergence          0.1000000E-05 Eh   :
          :  -> wf. convergence          0.1000000E-03 e    :
          :  Broyden damping             0.4000000          :
          ...................................................

 iter      E             dE          RMSdq      gap      omega  full diag
   1    -42.5894031 -0.425894E+02  0.445E+00    3.52       0.0  T
   2    -42.7683054 -0.178902E+00  0.251E+00    3.36       1.0  T
   3    -42.7759211 -0.761567E-02  0.147E+00    3.35       1.0  T
   4    -42.7728404  0.308066E-02  0.553E-01    3.33       1.0  T
   5    -42.7789548 -0.611444E-02  0.112E-01    3.35       1.0  T
   6    -42.7790473 -0.924914E-04  0.614E-02    3.33       1.0  T
   7    -42.7790721 -0.247928E-04  0.258E-02    3.34       1.0  T
   8    -42.7790772 -0.508996E-05  0.938E-03    3.34       2.1  T
   9    -42.7790779 -0.669422E-06  0.448E-03    3.34       4.5  T
  10    -42.7790780 -0.821511E-07  0.115E-03    3.34      17.4  T
  11    -42.7790780 -0.322662E-08  0.553E-04    3.34      36.2  T
  12    -42.7790780 -0.287052E-08  0.180E-04    3.34     111.1  T

   *** convergence criteria satisfied after 12 iterations ***

         #    Occupation            Energy/Eh            Energy/eV
      -------------------------------------------------------------
         1        2.0000           -0.9185990             -24.9964
       ...           ...                  ...                  ...
        31        1.9996           -0.6230278             -16.9534
        32        1.9995           -0.6194601             -16.8564
        33        1.9979           -0.5974976             -16.2587
        34        1.9932           -0.5789629             -15.7544
        35        1.9817           -0.5631863             -15.3251
        36        1.9779           -0.5602245             -15.2445
        37        1.9748           -0.5581234             -15.1873 (HOMO)
        38        0.0652           -0.4353579             -11.8467 (LUMO)
        39        0.0099           -0.4050467             -11.0219
        40        0.0013           -0.3732218             -10.1559
        41        0.0000           -0.2886859              -7.8555
        42                         -0.2065804              -5.6213
       ...                                ...                  ...
        67                          0.5625656              15.3082
      -------------------------------------------------------------
                  HL-Gap            0.1227656 Eh            3.3406 eV
             Fermi-level           -0.4890455 Eh          -13.3076 eV

 SCC (total)                   0 d,  0 h,  0 min,  0.063 sec
 SCC setup                      ...        0 min,  0.000 sec (  0.376%)
 Dispersion                     ...        0 min,  0.000 sec (  0.444%)
 classical contributions        ...        0 min,  0.000 sec (  0.122%)
 integral evaluation            ...        0 min,  0.005 sec (  8.291%)
 iterations                     ...        0 min,  0.031 sec ( 49.028%)
 molecular gradient             ...        0 min,  0.026 sec ( 41.464%)
 printout                       ...        0 min,  0.000 sec (  0.254%)

         :::::::::::::::::::::::::::::::::::::::::::::::::::::
         ::                     SUMMARY                     ::
         :::::::::::::::::::::::::::::::::::::::::::::::::::::
         :: total energy             -56.165546440140 Eh    ::
         :: gradient norm             14.921682954173 Eh/a0 ::
         :: HOMO-LUMO gap              3.340621582928 eV    ::
         ::.................................................::
         :: SCC energy               -42.779077977399 Eh    ::
         :: -> isotropic ES            0.141123876439 Eh    ::
         :: -> anisotropic ES         -0.005230418907 Eh    ::
         :: -> anisotropic XC          0.011966818540 Eh    ::
         :: -> dispersion             -0.022657731803 Eh    ::
         :: repulsion energy           0.531105277918 Eh    ::
         :: add. restraining         -13.917687899669 Eh    ::
         :: total charge               1.000000000002 e     ::
         :::::::::::::::::::::::::::::::::::::::::::::::::::::

      ----------------------------------------------------------- 
     |                   =====================                   |
     |                        A N C O P T                        |
     |                   =====================                   |
     |               Approximate Normal Coordinate               |
     |                Rational Function Optimizer                |
      ----------------------------------------------------------- 

          ...................................................
          :                      SETUP                      :
          :.................................................:
          :   optimization level             loose          :
          :   max. optcycles                   200          :
          :   ANC micro-cycles                  20          :
          :   degrees of freedom                69          :
          :.................................................:
          :   RF solver                   davidson          :
          :   write xtbopt.log                true          :
          :   linear?                        false          :
          :   energy convergence         0.5000000E-04 Eh   :
          :   grad. convergence          0.4000000E-02 Eh/α :
          :   maxmium RF displ.          1.0000000          :
          :   Hlow (freq-cutoff)         0.1000000E-01      :
          :   Hmax (freq-cutoff)         5.0000000          :
          :   S6 in model hess.         20.0000000          :
          ...................................................

generating ANC from model Hessian ...
Using Lindh-Hessian (1995)
 Shifting diagonal of input Hessian by    7.4371870807219373     
 Lowest  eigenvalues of input Hessian
    0.010000    0.000000    0.000000    0.000000    0.000000    0.000000
    0.000000    7.441528    7.442688    7.445864    7.446826    7.448496
    7.451275    7.454534    7.460292    7.462728    7.472602    7.477625
 Highest eigenvalues
    9.567186    9.689807    9.845456    9.978771   10.180623   11.042628


........................................................................
.............................. CYCLE    1 ..............................
........................................................................

 iter      E             dE          RMSdq      gap      omega  full diag
   1    -42.7790780 -0.427791E+02  0.626E-05    3.34       0.0  T
   2    -42.7790780 -0.124203E-10  0.329E-05    3.34     607.4  T
   3    -42.7790780  0.106581E-12  0.193E-05    3.34    1034.2  T
     SCC iter.                  ...        0 min,  0.005 sec
     gradient                   ...        0 min,  0.026 sec
 * total energy  :   -56.1655464 Eh     change       -0.6650680E-10 Eh
   gradient norm :    14.9216830 Eh/α   predicted     0.0000000E+00 (-100.00%)
   displ. norm   :     0.9988524 α      lambda       -0.1489693E+02
   maximum displ.:     0.9964214 α      in ANC's #1, #10, #11, ...

........................................................................
.............................. CYCLE    2 ..............................
........................................................................

 iter      E             dE          RMSdq      gap      omega  full diag
   1    -42.6661945 -0.426662E+02  0.176E+00    3.18       0.0  T
   2    -42.7010598 -0.348653E-01  0.111E+00    3.24       1.0  T
   3    -42.7078075 -0.674774E-02  0.572E-01    3.17       1.0  T
   4    -42.7076751  0.132430E-03  0.345E-01    3.22       1.0  T
   5    -42.7091107 -0.143558E-02  0.623E-02    3.19       1.0  T
   6    -42.7091857 -0.750169E-04  0.176E-02    3.19       1.1  T
   7    -42.7091862 -0.515634E-06  0.636E-03    3.19       3.1  T
   8    -42.7091865 -0.267235E-06  0.138E-03    3.19      14.5  T
   9    -42.7091865 -0.145162E-07  0.658E-04    3.19      30.4  T
  10    -42.7091865 -0.142334E-08  0.207E-04    3.19      96.8  T
     SCC iter.                  ...        0 min,  0.027 sec
     gradient                   ...        0 min,  0.026 sec
 * total energy  :   -74.7762299 Eh     change       -0.1861068E+02 Eh
   gradient norm :    22.1764326 Eh/α   predicted    -0.1488345E+02 ( -20.03%)
   displ. norm   :     0.9995812 α      lambda       -0.2216617E+02
   maximum displ.:     0.9987218 α      in ANC's #1, #24, #10, ...

........................................................................
.............................. CYCLE    3 ..............................
........................................................................

 iter      E             dE          RMSdq      gap      omega  full diag
   1    -42.3973997 -0.423974E+02  0.210E+00    2.79       0.0  T
   2    -42.4346434 -0.372437E-01  0.184E+00    2.66       1.0  T
   3    -42.4850949 -0.504515E-01  0.712E-01    2.65       1.0  T
   4    -42.4841863  0.908567E-03  0.575E-01    2.65       1.0  T
   5    -42.4878392 -0.365284E-02  0.115E-01    2.62       1.0  T
   6    -42.4879913 -0.152144E-03  0.328E-02    2.64       1.0  T
   7    -42.4880059 -0.145806E-04  0.106E-02    2.64       1.9  T
   8    -42.4880063 -0.396809E-06  0.536E-03    2.64       3.7  T
   9    -42.4880065 -0.190883E-06  0.158E-03    2.64      12.6  T
  10    -42.4880065 -0.340421E-07  0.370E-04    2.64      54.0  T
  11    -42.4880065 -0.352827E-09  0.174E-04    2.64     115.2  T
     SCC iter.                  ...        0 min,  0.015 sec
     gradient                   ...        0 min,  0.025 sec
 * total energy  :   -99.7434729 Eh     change       -0.2496724E+02 Eh
   gradient norm :    27.8051098 Eh/α   predicted    -0.2215690E+02 ( -11.26%)
   displ. norm   :     0.9966836 α      lambda       -0.2768980E+02
   maximum displ.:     0.9790894 α      in ANC's #1, #12, #11, ...

........................................................................
.............................. CYCLE    4 ..............................
........................................................................

 iter      E             dE          RMSdq      gap      omega  full diag
   1    -42.2160892 -0.422161E+02  0.199E+00    0.94       0.0  T
   2    -42.2092511  0.683812E-02  0.177E+00    0.59       1.0  T
   3    -42.2521433 -0.428922E-01  0.833E-01    0.80       1.0  T
   4    -42.2535509 -0.140754E-02  0.430E-01    0.75       1.0  T
   5    -42.2580215 -0.447062E-02  0.962E-02    0.80       1.0  T
   6    -42.2581467 -0.125245E-03  0.476E-02    0.78       1.0  T
   7    -42.2581686 -0.218269E-04  0.118E-02    0.79       1.7  T
   8    -42.2581711 -0.250195E-05  0.488E-03    0.79       4.1  T
   9    -42.2581713 -0.282508E-06  0.201E-03    0.79       9.9  T
  10    -42.2581714 -0.307448E-07  0.783E-04    0.79      25.5  T
  11    -42.2581714 -0.479285E-08  0.282E-04    0.79      70.9  T
     SCC iter.                  ...        0 min,  0.021 sec
     gradient                   ...        0 min,  0.015 sec
 * total energy  :  -130.7982802 Eh     change       -0.3105481E+02 Eh
   gradient norm :    36.0238520 Eh/α   predicted    -0.2760621E+02 ( -11.10%)
   displ. norm   :     0.9904440 α      lambda       -0.3564002E+02
   maximum displ.:     0.9203787 α      in ANC's #1, #3, #12, ...

........................................................................
.............................. CYCLE    5 ..............................
........................................................................

 iter      E             dE          RMSdq      gap      omega  full diag
   1    -42.0870242 -0.420870E+02  0.238E+00    0.46       0.0  T
   2    -42.1139310 -0.269068E-01  0.121E+00    0.14       1.0  T
   3    -42.0874666  0.264645E-01  0.112E+00    0.71       1.0  T
   4    -42.1159077 -0.284411E-01  0.627E-01    0.13       1.0  T
   5    -42.1280336 -0.121259E-01  0.215E-01    0.37       1.0  T
   6    -42.1284395 -0.405964E-03  0.992E-02    0.31       1.0  T
   7    -42.1286211 -0.181558E-03  0.346E-02    0.34       1.0  T
   8    -42.1286581 -0.369574E-04  0.117E-02    0.34       1.7  T
   9    -42.1286587 -0.661290E-06  0.655E-03    0.34       3.1  T
  10    -42.1286593 -0.556971E-06  0.251E-03    0.34       8.0  T
  11    -42.1286593 -0.597715E-07  0.126E-03    0.34      15.8  T
  12    -42.1286594 -0.374401E-07  0.400E-04    0.34      49.9  T
  13    -42.1286594 -0.749303E-09  0.161E-04    0.34     124.2  T
     SCC iter.                  ...        0 min,  0.027 sec
     gradient                   ...        0 min,  0.013 sec
 * total energy  :  -169.9925762 Eh     change       -0.3919430E+02 Eh
   gradient norm :    44.2456983 Eh/α   predicted    -0.3530107E+02 (  -9.93%)
   displ. norm   :     0.9985843 α      lambda       -0.4417672E+02
   maximum displ.:     0.9869748 α      in ANC's #1, #31, #63, ...

........................................................................
.............................. CYCLE    6 ..............................
........................................................................

 iter      E             dE          RMSdq      gap      omega  full diag
   1    -42.0899121 -0.420899E+02  0.184E+00    0.02       0.0  T
   2    -42.0857786  0.413345E-02  0.113E+00    0.40       1.0  T
   3    -41.9664966  0.119282E+00  0.197E+00    0.75       1.0  T
   4    -42.0834616 -0.116965E+00  0.578E-01    0.21       1.0  T
   5    -42.0950537 -0.115920E-01  0.140E-01    0.12       1.0  T
   6    -42.0954676 -0.413921E-03  0.575E-02    0.16       1.0  T
   7    -42.0955032 -0.356009E-04  0.190E-02    0.15       1.1  T
   8    -42.0955094 -0.625620E-05  0.839E-03    0.15       2.4  T
   9    -42.0955104 -0.989353E-06  0.382E-03    0.15       5.2  T
  10    -42.0955106 -0.221599E-06  0.103E-03    0.15      19.5  T
  11    -42.0955107 -0.123862E-07  0.350E-04    0.15      57.2  T
  12    -42.0955107 -0.388020E-09  0.194E-04    0.15     103.3  T
     SCC iter.                  ...        0 min,  0.016 sec
     gradient                   ...        0 min,  0.014 sec
 * total energy  :  -218.4600430 Eh     change       -0.4846747E+02 Eh
   gradient norm :    52.1121409 Eh/α   predicted    -0.4411423E+02 (  -8.98%)
   displ. norm   :     0.9981628 α      lambda       -0.5200352E+02
   maximum displ.:     0.9798350 α      in ANC's #1, #3, #39, ...

........................................................................
.............................. CYCLE    7 ..............................
........................................................................

 iter      E             dE          RMSdq      gap      omega  full diag
   1    -42.0723683 -0.420724E+02  0.223E+00    0.35       0.0  T
   2    -41.9051247  0.167244E+00  0.271E+00    1.54       1.0  T
   3    -42.1093997 -0.204275E+00  0.131E+00    0.37       1.0  T
   4    -42.1586506 -0.492509E-01  0.583E-01    0.28       1.0  T
   5    -42.1663663 -0.771572E-02  0.249E-01    0.10       1.0  T
   6    -42.1671576 -0.791264E-03  0.993E-02    0.09       1.0  T
   7    -42.1674013 -0.243755E-03  0.374E-02    0.13       1.0  T
   8    -42.1674232 -0.218867E-04  0.238E-02    0.14       1.0  T
   9    -42.1674407 -0.174688E-04  0.508E-03    0.13       3.9  T
  10    -42.1674408 -0.837003E-07  0.267E-03    0.13       7.5  T
  11    -42.1674410 -0.219282E-06  0.111E-03    0.13      18.1  T
  12    -42.1674410 -0.303175E-07  0.212E-04    0.13      94.5  T
  13    -42.1674410  0.306507E-09  0.153E-04    0.13     130.9  T
     SCC iter.                  ...        0 min,  0.017 sec
     gradient                   ...        0 min,  0.013 sec
 * total energy  :  -237.0242143 Eh     change       -0.1856417E+02 Eh
   gradient norm :   291.9805944 Eh/α   predicted    -0.5191257E+02 ( 179.64%)
   displ. norm   :     0.9943730 α      lambda       -0.2903280E+03
   maximum displ.:     0.7438432 α      in ANC's #3, #1, #10, ...

........................................................................
.............................. CYCLE    8 ..............................
........................................................................

 iter      E             dE          RMSdq      gap      omega  full diag
   1    -41.7988961 -0.417989E+02  0.369E+00    0.75       0.0  T
   2    -41.3849450  0.413951E+00  0.465E+00    0.35       1.0  T
   3    -42.1492228 -0.764278E+00  0.122E+00    0.13       1.0  T
   4    -42.1310290  0.181938E-01  0.115E+00    0.48       1.0  T
   5    -42.0890602  0.419687E-01  0.134E+00    0.31       1.0  T
   6    -42.1532156 -0.641554E-01  0.294E-01    0.27       1.0  T
   7    -42.1548032 -0.158753E-02  0.214E-01    0.20       1.0  T
   8    -42.1552226 -0.419382E-03  0.121E-01    0.21       1.0  T
   9    -42.1552476 -0.250390E-04  0.549E-02    0.21       1.0  T
  10    -42.1553185 -0.708749E-04  0.128E-02    0.22       1.6  T
  11    -42.1553215 -0.304571E-05  0.647E-03    0.21       3.1  T
  12    -42.1553216 -0.479575E-07  0.516E-03    0.21       3.9  T
  13    -42.1553220 -0.411312E-06  0.111E-03    0.21      18.1  T
  14    -42.1553220 -0.173600E-07  0.638E-04    0.21      31.3  T
  15    -42.1553220 -0.618183E-08  0.193E-04    0.21     103.4  T
     SCC iter.                  ...        0 min,  0.020 sec
     gradient                   ...        0 min,  0.013 sec
 * total energy  :  -212.5941989 Eh     change        0.2443002E+02 Eh
   gradient norm :    54.1099561 Eh/α   predicted    -0.2886991E+03 (*******%)
   displ. norm   :     0.4337481 α      lambda       -0.1055276E+02
   maximum displ.:     0.1919758 α      in ANC's #1, #31, #39, ...

........................................................................
.............................. CYCLE    9 ..............................
........................................................................

 iter      E             dE          RMSdq      gap      omega  full diag
   1    -41.9582337 -0.419582E+02  0.236E+00    0.64       0.0  T
   2    -41.4242075  0.534026E+00  0.398E+00    0.44       1.0  T
   3    -42.1167834 -0.692576E+00  0.989E-01    0.48       1.0  T
   4    -42.1128568  0.392657E-02  0.880E-01    0.15       1.0  T
   5    -42.1349745 -0.221176E-01  0.504E-01    0.25       1.0  T
   6    -42.1376966 -0.272217E-02  0.235E-01    0.26       1.0  T
   7    -42.1383602 -0.663586E-03  0.146E-01    0.25       1.0  T
   8    -42.1388803 -0.520126E-03  0.959E-02    0.25       1.0  T
   9    -42.1389543 -0.739720E-04  0.583E-02    0.25       1.0  T
  10    -42.1389964 -0.421230E-04  0.137E-02    0.24       1.5  T
  11    -42.1389995 -0.307228E-05  0.743E-03    0.24       2.7  T
  12    -42.1390003 -0.827450E-06  0.292E-03    0.24       6.8  T
  13    -42.1390004 -0.125508E-06  0.573E-04    0.24      34.9  T
  14    -42.1390005 -0.285877E-08  0.249E-04    0.24      80.4  T
     SCC iter.                  ...        0 min,  0.019 sec
     gradient                   ...        0 min,  0.013 sec
 * total energy  :  -221.0523767 Eh     change       -0.8458178E+01 Eh
   gradient norm :    51.0335644 Eh/α   predicted    -0.6269065E+01 ( -25.88%)
   displ. norm   :     0.7848576 α      lambda       -0.3880492E+02
   maximum displ.:     0.6854157 α      in ANC's #3, #1, #10, ...

........................................................................
.............................. CYCLE   10 ..............................
........................................................................

 iter      E             dE          RMSdq      gap      omega  full diag
   1    -42.1737185 -0.421737E+02  0.196E+00    0.31       0.0  T
   2    -42.1238805  0.498380E-01  0.172E+00    0.32       1.0  T
   3    -42.0988049  0.250756E-01  0.183E+00    1.01       1.0  T
   4    -42.2097673 -0.110962E+00  0.583E-01    0.15       1.0  T
   5    -42.2092826  0.484639E-03  0.540E-01    0.35       1.0  T
   6    -42.2185401 -0.925745E-02  0.777E-02    0.24       1.0  T
   7    -42.2185506 -0.104916E-04  0.613E-02    0.26       1.0  T
   8    -42.2186259 -0.753232E-04  0.216E-02    0.25       1.0  T
   9    -42.2186354 -0.945959E-05  0.658E-03    0.25       3.0  T
  10    -42.2186363 -0.962642E-06  0.262E-03    0.25       7.6  T
  11    -42.2186365 -0.155034E-06  0.123E-03    0.25      16.2  T
  12    -42.2186365 -0.235880E-07  0.393E-04    0.25      50.9  T
  13    -42.2186365 -0.264966E-08  0.147E-04    0.25     136.4  T
     SCC iter.                  ...        0 min,  0.017 sec
     gradient                   ...        0 min,  0.013 sec
 * total energy  :  -250.2960273 Eh     change       -0.2924365E+02 Eh
   gradient norm :    12.6614059 Eh/α   predicted    -0.3135541E+02 (   7.22%)
   displ. norm   :     0.8154062 α      lambda       -0.5065154E+01
   maximum displ.:     0.6059357 α      in ANC's #1, #3, #31, ...

........................................................................
.............................. CYCLE   11 ..............................
........................................................................

 iter      E             dE          RMSdq      gap      omega  full diag
   1    -42.0455847 -0.420456E+02  0.228E+00    0.70       0.0  T
   2    -41.8112735  0.234311E+00  0.352E+00    0.91       1.0  T
   3    -42.1526711 -0.341398E+00  0.929E-01    0.30       1.0  T
   4    -42.0819640  0.707070E-01  0.134E+00    0.61       1.0  T
   5    -42.1632940 -0.813299E-01  0.461E-01    0.45       1.0  T
   6    -42.1701698 -0.687585E-02  0.138E-01    0.46       1.0  T
   7    -42.1704614 -0.291594E-03  0.585E-02    0.49       1.0  T
   8    -42.1705341 -0.726533E-04  0.302E-02    0.48       1.0  T
   9    -42.1705384 -0.437715E-05  0.184E-02    0.49       1.1  T
  10    -42.1705475 -0.909404E-05  0.469E-03    0.49       4.3  T
  11    -42.1705480 -0.409733E-06  0.237E-03    0.49       8.4  T
  12    -42.1705480 -0.357540E-07  0.126E-03    0.49      15.9  T
  13    -42.1705480 -0.422731E-07  0.221E-04    0.49      90.5  T
  14    -42.1705480 -0.670468E-10  0.108E-04    0.49     185.9  T
     SCC iter.                  ...        0 min,  0.019 sec
     gradient                   ...        0 min,  0.013 sec
 * total energy  :  -226.9678504 Eh     change        0.2332818E+02 Eh
   gradient norm :    51.9799055 Eh/α   predicted    -0.4216480E+01 (-118.07%)
   displ. norm   :     0.4635187 α      lambda       -0.2289680E+02
   maximum displ.:     0.4069442 α      in ANC's #1, #3, #2, ...

........................................................................
.............................. CYCLE   12 ..............................
........................................................................

 iter      E             dE          RMSdq      gap      omega  full diag
   1    -42.1836194 -0.421836E+02  0.985E-01    0.48       0.0  T
   2    -42.0526195  0.131000E+00  0.190E+00    0.30       1.0  T
   3    -42.1997828 -0.147163E+00  0.473E-01    0.47       1.0  T
   4    -42.2005382 -0.755424E-03  0.373E-01    0.28       1.0  T
   5    -42.2021356 -0.159736E-02  0.209E-01    0.42       1.0  T
   6    -42.2034389 -0.130330E-02  0.274E-02    0.38       1.0  T
   7    -42.2034353  0.360084E-05  0.270E-02    0.38       1.0  T
   8    -42.2034456 -0.103348E-04  0.160E-02    0.38       1.3  T
   9    -42.2034518 -0.613272E-05  0.305E-03    0.38       6.6  T
  10    -42.2034519 -0.157356E-06  0.130E-03    0.38      15.4  T
  11    -42.2034519 -0.117196E-07  0.763E-04    0.38      26.2  T
  12    -42.2034520 -0.143657E-07  0.182E-04    0.38     110.1  T
     SCC iter.                  ...        0 min,  0.016 sec
     gradient                   ...        0 min,  0.013 sec
 * total energy  :  -247.1850734 Eh     change       -0.2021722E+02 Eh
   gradient norm :    36.2917901 Eh/α   predicted    -0.1390808E+02 ( -31.21%)
   displ. norm   :     0.8243599 α      lambda       -0.2804089E+02
   maximum displ.:     0.7463195 α      in ANC's #1, #2, #3, ...

........................................................................
.............................. CYCLE   13 ..............................
........................................................................

 iter      E             dE          RMSdq      gap      omega  full diag
   1    -42.1987214 -0.421987E+02  0.188E+00    0.58       0.0  T
   2    -41.8903546  0.308367E+00  0.316E+00    0.20       1.0  T
   3    -42.2525583 -0.362204E+00  0.850E-01    0.46       1.0  T
   4    -42.2626618 -0.101034E-01  0.627E-01    0.18       1.0  T
   5    -42.2628158 -0.154030E-03  0.465E-01    0.34       1.0  T
   6    -42.2713228 -0.850704E-02  0.103E-01    0.24       1.0  T
   7    -42.2715313 -0.208461E-03  0.532E-02    0.26       1.0  T
   8    -42.2715731 -0.418252E-04  0.313E-02    0.26       1.0  T
   9    -42.2715980 -0.248589E-04  0.946E-03    0.26       2.1  T
  10    -42.2715998 -0.186210E-05  0.284E-03    0.26       7.0  T
  11    -42.2715999 -0.638695E-07  0.141E-03    0.26      14.2  T
  12    -42.2715999 -0.283944E-07  0.578E-04    0.26      34.6  T
  13    -42.2715999 -0.727627E-08  0.115E-04    0.26     174.4  T
     SCC iter.                  ...        0 min,  0.018 sec
     gradient                   ...        0 min,  0.013 sec
 * total energy  :  -245.3291143 Eh     change        0.1855959E+01 Eh
   gradient norm :    40.6558730 Eh/α   predicted    -0.2354833E+02 (*******%)
   displ. norm   :     0.5007236 α      lambda       -0.1733384E+02
   maximum displ.:     0.3658623 α      in ANC's #2, #1, #3, ...

........................................................................
.............................. CYCLE   14 ..............................
........................................................................

 iter      E             dE          RMSdq      gap      omega  full diag
   1    -42.2680825 -0.422681E+02  0.858E-01    0.19       0.0  T
   2    -42.2383405  0.297420E-01  0.106E+00    0.54       1.0  T
   3    -42.2521736 -0.138331E-01  0.834E-01    0.25       1.0  T
   4    -42.2743691 -0.221956E-01  0.347E-01    0.25       1.0  T
   5    -42.2764618 -0.209264E-02  0.156E-01    0.22       1.0  T
   6    -42.2773058 -0.844028E-03  0.303E-02    0.22       1.0  T
   7    -42.2773097 -0.389359E-05  0.156E-02    0.22       1.3  T
   8    -42.2773062  0.350142E-05  0.145E-02    0.22       1.4  T
   9    -42.2773129 -0.673832E-05  0.156E-03    0.22      12.8  T
  10    -42.2773130 -0.246246E-07  0.808E-04    0.22      24.8  T
  11    -42.2773130 -0.164906E-08  0.421E-04    0.22      47.5  T
     SCC iter.                  ...        0 min,  0.015 sec
     gradient                   ...        0 min,  0.013 sec
 * total energy  :  -250.4850489 Eh     change       -0.5155935E+01 Eh
   gradient norm :     8.1108103 Eh/α   predicted    -0.1083993E+02 ( 110.24%)
   displ. norm   :     0.6633276 α      lambda       -0.4965298E+01
   maximum displ.:     0.5697291 α      in ANC's #2, #1, #12, ...

........................................................................
.............................. CYCLE   15 ..............................
........................................................................

 iter      E             dE          RMSdq      gap      omega  full diag
   1    -42.2355802 -0.422356E+02  0.154E+00    0.15       0.0  T
   2    -42.1800334  0.555467E-01  0.184E+00    0.19       1.0  T
   3    -42.2804359 -0.100403E+00  0.604E-01    0.21       1.0  T
   4    -42.2751007  0.533526E-02  0.566E-01    0.10       1.0  T
   5    -42.2765482 -0.144757E-02  0.520E-01    0.38       1.0  T
   6    -42.2863187 -0.977043E-02  0.426E-02    0.16       1.0  T
   7    -42.2863129  0.573039E-05  0.385E-02    0.16       1.0  T
   8    -42.2863510 -0.380756E-04  0.152E-02    0.16       1.3  T
   9    -42.2863531 -0.209806E-05  0.785E-03    0.16       2.5  T
  10    -42.2863546 -0.145239E-05  0.191E-03    0.16      10.5  T
  11    -42.2863546 -0.587389E-07  0.679E-04    0.16      29.5  T
  12    -42.2863546 -0.259459E-08  0.246E-04    0.16      81.5  T
     SCC iter.                  ...        0 min,  0.016 sec
     gradient                   ...        0 min,  0.013 sec
 * total energy  :  -224.5553879 Eh     change        0.2592966E+02 Eh
   gradient norm :    51.6367776 Eh/α   predicted    -0.3575026E+01 (-113.79%)
   displ. norm   :     0.4561706 α      lambda       -0.2337652E+02
   maximum displ.:     0.4055087 α      in ANC's #2, #1, #12, ...

........................................................................
.............................. CYCLE   16 ..............................
........................................................................

 iter      E             dE          RMSdq      gap      omega  full diag
   1    -42.2750115 -0.422750E+02  0.114E+00    0.18       0.0  T
   2    -42.2431956  0.318159E-01  0.132E+00    0.11       1.0  T
   3    -42.2953400 -0.521445E-01  0.404E-01    0.20       1.0  T
   4    -42.2961977 -0.857677E-03  0.248E-01    0.14       1.0  T
   5    -42.2944157  0.178205E-02  0.275E-01    0.27       1.0  T
   6    -42.2973875 -0.297188E-02  0.491E-02    0.17       1.0  T
   7    -42.2974394 -0.518474E-04  0.301E-02    0.18       1.0  T
   8    -42.2974654 -0.260099E-04  0.984E-03    0.18       2.0  T
   9    -42.2974672 -0.184430E-05  0.196E-03    0.18      10.2  T
  10    -42.2974673 -0.703330E-07  0.815E-04    0.18      24.5  T
  11    -42.2974673 -0.391955E-08  0.435E-04    0.18      46.0  T
     SCC iter.                  ...        0 min,  0.015 sec
     gradient                   ...        0 min,  0.013 sec
 * total energy  :  -246.1353659 Eh     change       -0.2157998E+02 Eh
   gradient norm :    38.6921148 Eh/α   predicted    -0.1412049E+02 ( -34.57%)
   displ. norm   :     0.7015165 α      lambda       -0.2684340E+02
   maximum displ.:     0.5798697 α      in ANC's #2, #1, #12, ...

........................................................................
.............................. CYCLE   17 ..............................
........................................................................

 iter      E             dE          RMSdq      gap      omega  full diag
   1    -42.2079035 -0.422079E+02  0.128E+00    0.48       0.0  T
   2    -42.1595684  0.483351E-01  0.156E+00    0.21       1.0  T
   3    -42.2195629 -0.599945E-01  0.672E-01    0.40       1.0  T
   4    -42.2147483  0.481461E-02  0.580E-01    0.47       1.0  T
   5    -42.2217122 -0.696394E-02  0.338E-01    0.26       1.0  T
   6    -42.2262798 -0.456761E-02  0.658E-02    0.35       1.0  T
   7    -42.2263684 -0.885618E-04  0.415E-02    0.34       1.0  T
   8    -42.2264166 -0.482315E-04  0.132E-02    0.34       1.5  T
   9    -42.2264200 -0.339498E-05  0.293E-03    0.34       6.8  T
  10    -42.2264201 -0.104416E-06  0.161E-03    0.34      12.4  T
  11    -42.2264201 -0.327883E-07  0.647E-04    0.34      30.9  T
  12    -42.2264201 -0.325142E-08  0.284E-04    0.34      70.5  T
     SCC iter.                  ...        0 min,  0.016 sec
     gradient                   ...        0 min,  0.013 sec
 * total energy  :  -250.4373173 Eh     change       -0.4301951E+01 Eh
   gradient norm :     9.0977347 Eh/α   predicted    -0.2002697E+02 ( 365.53%)
   displ. norm   :     0.2790246 α      lambda       -0.1315763E+01
   maximum displ.:     0.0989040 α      in ANC's #3, #31, #39, ...

........................................................................
.............................. CYCLE   18 ..............................
........................................................................

 iter      E             dE          RMSdq      gap      omega  full diag
   1    -42.2262799 -0.422263E+02  0.766E-01    0.20       0.0  T
   2    -42.1713363  0.549436E-01  0.166E+00    0.58       1.0  T
   3    -42.2406363 -0.693000E-01  0.280E-01    0.32       1.0  T
   4    -42.2361243  0.451197E-02  0.398E-01    0.21       1.0  T
   5    -42.2390961 -0.297176E-02  0.235E-01    0.34       1.0  T
   6    -42.2412863 -0.219020E-02  0.566E-02    0.29       1.0  T
   7    -42.2413481 -0.617831E-04  0.235E-02    0.28       1.0  T
   8    -42.2413598 -0.117344E-04  0.737E-03    0.28       2.7  T
   9    -42.2413606 -0.756872E-06  0.328E-03    0.28       6.1  T
  10    -42.2413608 -0.223792E-06  0.594E-04    0.28      33.7  T
  11    -42.2413608 -0.952539E-09  0.361E-04    0.28      55.3  T
     SCC iter.                  ...        0 min,  0.015 sec
     gradient                   ...        0 min,  0.013 sec
 * total energy  :  -247.4536703 Eh     change        0.2983647E+01 Eh
   gradient norm :    85.0379056 Eh/α   predicted    -0.7091073E+00 (-123.77%)
   displ. norm   :     0.3285032 α      lambda       -0.6450629E+01
   maximum displ.:     0.1990031 α      in ANC's #3, #39, #31, ...

........................................................................
.............................. CYCLE   19 ..............................
........................................................................

 iter      E             dE          RMSdq      gap      omega  full diag
   1    -42.2053739 -0.422054E+02  0.877E-01    0.18       0.0  T
   2    -42.1477444  0.576296E-01  0.167E+00    0.46       1.0  T
   3    -42.2189800 -0.712357E-01  0.368E-01    0.28       1.0  T
   4    -42.2115675  0.741251E-02  0.506E-01    0.16       1.0  T
   5    -42.2179684 -0.640085E-02  0.257E-01    0.31       1.0  T
   6    -42.2205718 -0.260347E-02  0.571E-02    0.23       1.0  T
   7    -42.2206329 -0.610944E-04  0.236E-02    0.23       1.0  T
   8    -42.2206444 -0.114597E-04  0.797E-03    0.23       2.5  T
   9    -42.2206454 -0.105924E-05  0.350E-03    0.23       5.7  T
  10    -42.2206457 -0.268355E-06  0.788E-04    0.23      25.4  T
  11    -42.2206457 -0.946959E-08  0.358E-04    0.23      55.9  T
     SCC iter.                  ...        0 min,  0.015 sec
     gradient                   ...        0 min,  0.013 sec
 * total energy  :  -249.8384265 Eh     change       -0.2384756E+01 Eh
   gradient norm :    19.6615179 Eh/α   predicted    -0.3573372E+01 (  49.84%)
   displ. norm   :     0.7386526 α      lambda       -0.5726894E+01
   maximum displ.:     0.3715620 α      in ANC's #3, #31, #39, ...

........................................................................
.............................. CYCLE   20 ..............................
........................................................................

 iter      E             dE          RMSdq      gap      omega  full diag
   1    -42.1080989 -0.421081E+02  0.213E+00    0.91       0.0  T
   2    -41.8914564  0.216642E+00  0.345E+00    0.42       1.0  T
   3    -42.2093224 -0.317866E+00  0.925E-01    0.23       1.0  T
   4    -42.1860351  0.232872E-01  0.104E+00    0.58       1.0  T
   5    -42.2079198 -0.218846E-01  0.587E-01    0.27       1.0  T
   6    -42.2216758 -0.137560E-01  0.144E-01    0.40       1.0  T
   7    -42.2221264 -0.450640E-03  0.452E-02    0.39       1.0  T
   8    -42.2221434 -0.169449E-04  0.239E-02    0.38       1.0  T
   9    -42.2221468 -0.340490E-05  0.865E-03    0.38       2.3  T
  10    -42.2221490 -0.225687E-05  0.385E-03    0.38       5.2  T
  11    -42.2221494 -0.334074E-06  0.172E-03    0.38      11.6  T
  12    -42.2221494 -0.533553E-07  0.509E-04    0.38      39.3  T
  13    -42.2221494 -0.409119E-08  0.138E-04    0.38     144.6  T
     SCC iter.                  ...        0 min,  0.017 sec
     gradient                   ...        0 min,  0.013 sec
 * total energy  :  -248.0443610 Eh     change        0.1794066E+01 Eh
   gradient norm :    32.5837235 Eh/α   predicted    -0.4425769E+01 (-346.69%)
   displ. norm   :     0.3036497 α      lambda       -0.7033209E+01
   maximum displ.:     0.2159066 α      in ANC's #3, #1, #2, ...
 * RMSD in coord.:     1.2033382 α      energy gain  -0.1918788E+03 Eh

generating ANC from model Hessian ...
Using Lindh-Hessian (1995)
 Shifting diagonal of input Hessian by    3.1022840522392170     
 Lowest  eigenvalues of input Hessian
    0.010000    3.101860    0.000000    0.000000    0.000000    0.000000
    0.000000    0.000000    3.103079    3.104564    3.105173    3.107136
    3.107848    3.109603    3.110917    3.115453    3.116613    3.118619
 Highest eigenvalues
    5.248747    5.268885    5.493789    5.654799  265.486158  302.795630


........................................................................
.............................. CYCLE   21 ..............................
........................................................................

 iter      E             dE          RMSdq      gap      omega  full diag
   1    -42.2173552 -0.422174E+02  0.417E-01    0.35       0.0  T
   2    -42.2103245  0.703072E-02  0.495E-01    0.27       1.0  T
   3    -42.2145897 -0.426526E-02  0.351E-01    0.40       1.0  T
   4    -42.2171409 -0.255121E-02  0.202E-01    0.30       1.0  T
   5    -42.2183526 -0.121165E-02  0.351E-02    0.33       1.0  T
   6    -42.2183626 -0.100067E-04  0.341E-02    0.34       1.0  T
   7    -42.2183888 -0.261724E-04  0.959E-03    0.33       2.1  T
   8    -42.2183902 -0.142060E-05  0.270E-03    0.33       7.4  T
   9    -42.2183903 -0.990164E-07  0.117E-03    0.33      17.1  T
  10    -42.2183903 -0.176597E-07  0.576E-04    0.33      34.7  T
  11    -42.2183903 -0.401787E-08  0.124E-04    0.33     161.0  T
     SCC iter.                  ...        0 min,  0.015 sec
     gradient                   ...        0 min,  0.013 sec
 * total energy  :  -250.4986532 Eh     change       -0.2454292E+01 Eh
   gradient norm :     6.7490711 Eh/α   predicted     0.0000000E+00 (-100.00%)
   displ. norm   :     0.9982456 α      lambda       -0.6729013E+01
   maximum displ.:     0.9965780 α      in ANC's #1, #50, #44, ...

........................................................................
.............................. CYCLE   22 ..............................
........................................................................

 iter      E             dE          RMSdq      gap      omega  full diag
   1    -42.0890222 -0.420890E+02  0.192E+00    0.58       0.0  T
   2    -41.9853169  0.103705E+00  0.184E+00    0.40       1.0  T
   3    -41.9670129  0.183040E-01  0.239E+00    0.70       1.0  T
   4    -42.1029946 -0.135982E+00  0.986E-01    0.48       1.0  T
   5    -42.1087235 -0.572893E-02  0.566E-01    0.56       1.0  T
   6    -42.1230663 -0.143427E-01  0.227E-01    0.34       1.0  T
   7    -42.1243461 -0.127986E-02  0.929E-02    0.41       1.0  T
   8    -42.1241456  0.200539E-03  0.109E-01    0.40       1.0  T
   9    -42.1242900 -0.144381E-03  0.638E-02    0.41       1.0  T
  10    -42.1244199 -0.129965E-03  0.159E-02    0.41       1.3  T
  11    -42.1244247 -0.479329E-05  0.805E-03    0.41       2.5  T
  12    -42.1244271 -0.236001E-05  0.159E-03    0.41      12.6  T
  13    -42.1244271 -0.494118E-07  0.599E-04    0.41      33.4  T
  14    -42.1244271 -0.754028E-08  0.214E-04    0.41      93.6  T
     SCC iter.                  ...        0 min,  0.019 sec
     gradient                   ...        0 min,  0.013 sec
 * total energy  :  -205.6360743 Eh     change        0.4486258E+02 Eh
   gradient norm :    51.1427824 Eh/α   predicted    -0.6721242E+01 (-114.98%)
   displ. norm   :     0.5824893 α      lambda       -0.2978961E+02
   maximum displ.:     0.5810231 α      in ANC's #1, #44, #62, ...

........................................................................
.............................. CYCLE   23 ..............................
........................................................................

 iter      E             dE          RMSdq      gap      omega  full diag
   1    -42.1403584 -0.421404E+02  0.146E+00    0.35       0.0  T
   2    -42.0200490  0.120309E+00  0.192E+00    0.44       1.0  T
   3    -42.1247205 -0.104671E+00  0.141E+00    0.56       1.0  T
   4    -42.1623012 -0.375807E-01  0.685E-01    0.40       1.0  T
   5    -42.1638927 -0.159152E-02  0.412E-01    0.29       1.0  T
   6    -42.1683810 -0.448830E-02  0.240E-01    0.45       1.0  T
   7    -42.1701267 -0.174574E-02  0.651E-02    0.38       1.0  T
   8    -42.1701690 -0.423114E-04  0.393E-02    0.38       1.0  T
   9    -42.1701999 -0.308915E-04  0.182E-02    0.37       1.1  T
  10    -42.1702102 -0.102519E-04  0.338E-03    0.38       5.9  T
  11    -42.1702102 -0.125444E-07  0.332E-03    0.38       6.0  T
  12    -42.1702104 -0.218460E-06  0.173E-03    0.38      11.6  T
  13    -42.1702105 -0.786682E-07  0.218E-04    0.38      91.6  T
  14    -42.1702105 -0.725841E-09  0.602E-05    0.38     332.4  T
     SCC iter.                  ...        0 min,  0.019 sec
     gradient                   ...        0 min,  0.013 sec
 * total energy  :  -235.7941748 Eh     change       -0.3015810E+02 Eh
   gradient norm :    50.1441770 Eh/α   predicted    -0.1994854E+02 ( -33.85%)
   displ. norm   :     0.9831435 α      lambda       -0.4929766E+02
   maximum displ.:     0.9796538 α      in ANC's #1, #44, #62, ...

........................................................................
.............................. CYCLE   24 ..............................
........................................................................

 iter      E             dE          RMSdq      gap      omega  full diag
   1    -42.2506994 -0.422507E+02  0.172E+00    0.16       0.0  T
   2    -42.1443086  0.106391E+00  0.237E+00    0.37       1.0  T
   3    -42.2919370 -0.147628E+00  0.845E-01    0.18       1.0  T
   4    -42.2235355  0.684015E-01  0.145E+00    0.70       1.0  T
   5    -42.2947133 -0.711778E-01  0.502E-01    0.21       1.0  T
   6    -42.3022746 -0.756130E-02  0.952E-02    0.25       1.0  T
   7    -42.3024605 -0.185851E-03  0.523E-02    0.24       1.0  T
   8    -42.3025216 -0.611498E-04  0.193E-02    0.24       1.0  T
   9    -42.3025248 -0.315721E-05  0.646E-03    0.24       3.1  T
  10    -42.3025254 -0.612149E-06  0.190E-03    0.24      10.5  T
  11    -42.3025254 -0.293240E-07  0.105E-03    0.24      19.1  T
  12    -42.3025254 -0.333532E-08  0.599E-04    0.24      33.4  T
  13    -42.3025254 -0.799304E-08  0.242E-04    0.24      82.5  T
     SCC iter.                  ...        0 min,  0.017 sec
     gradient                   ...        0 min,  0.013 sec
 * total energy  :  -249.1250445 Eh     change       -0.1333087E+02 Eh
   gradient norm :    27.6051032 Eh/α   predicted    -0.4847368E+02 ( 263.62%)
   displ. norm   :     0.3157789 α      lambda       -0.8689517E+01
   maximum displ.:     0.3116055 α      in ANC's #1, #50, #62, ...

........................................................................
.............................. CYCLE   25 ..............................
........................................................................

 iter      E             dE          RMSdq      gap      omega  full diag
   1    -42.2557905 -0.422558E+02  0.855E-01    0.40       0.0  T
   2    -42.2188472  0.369433E-01  0.130E+00    0.12       1.0  T
   3    -42.2689183 -0.500711E-01  0.271E-01    0.33       1.0  T
   4    -42.2635166  0.540172E-02  0.411E-01    0.24       1.0  T
   5    -42.2692891 -0.577256E-02  0.133E-01    0.31       1.0  T
   6    -42.2698675 -0.578328E-03  0.240E-02    0.29       1.0  T
   7    -42.2698742 -0.674378E-05  0.109E-02    0.29       1.8  T
   8    -42.2698758 -0.158055E-05  0.366E-03    0.29       5.5  T
   9    -42.2698759 -0.129122E-06  0.274E-03    0.29       7.3  T
  10    -42.2698762 -0.248533E-06  0.742E-04    0.29      27.0  T
  11    -42.2698762 -0.234702E-08  0.397E-04    0.29      50.4  T
     SCC iter.                  ...        0 min,  0.015 sec
     gradient                   ...        0 min,  0.013 sec
================
 final structure:
================
25
 xtb: 6.6.1 (8d0f1dd)
C            3.21786164340000        1.13591514650000        0.01837059260000
N            2.27034809790000        0.05199982890000        0.00038279530000
C            2.54167221030000       -1.23971668410000       -0.00834188300000
N            1.39367826450000       -1.95088267900000       -0.00850347120000
C            0.35269634020000       -1.06748964300000        0.00059917290000
C            0.90759959010000        0.20069750900000        0.00663590170000
C            0.07590235260000        1.39864294500000       -0.00284827040000
O            0.48715076820000        2.53168346660000       -0.01725767220000
N           -1.27221500230000        1.06666939660000        0.00165480230000
C           -2.23229981500000        2.16656245330000       -0.00245172030000
C           -1.84872931540000       -0.19179276200000        0.00496135950000
O           -3.03273030250000       -0.36103538130000        0.00858583760000
N           -0.96599111670000       -1.30060631840000        0.00174701630000
C           -1.52030655580000       -2.64076660390000       -0.00239033190000
H            3.71480285180000        1.18589984860000        0.98803183970000
H            3.97079415090000        0.99383197990000       -0.75543416370000
H            2.68321036910000        2.07051068580000       -0.15067179540000
H            3.52469367910000       -1.66989040330000       -0.01523639120000
H           -1.67672429040000        3.10039111610000        0.00486339690000
H           -2.85755792270000        2.10547813320000       -0.89185337000000
H           -2.87119733260000        2.09858159720000        0.87661144540000
H           -1.20589108080000       -3.18768007210000        0.88663215920000
H           -1.21982032550000       -3.17678505510000       -0.90288069810000
H           -2.60531402170000       -2.54255916880000        0.00649952960000
H            1.32879827740000       -2.95942079410000       -0.01653446370000

 Bond Distances (Angstroems)
 ---------------------------
C1-N2=1.4398         C1-H15=1.0907        C1-H16=1.0890        C1-H17=1.0899        N2-C1=1.4398         N2-C3=1.3199         
N2-C6=1.3709         C3-N2=1.3199         C3-N4=1.3504         C3-H18=1.0730        N4-C3=1.3504         N4-C5=1.3653         
N4-H25=1.0107        C5-N4=1.3653         C5-C6=1.3843         C5-N13=1.3391        C6-N2=1.3709         C6-C5=1.3843         
C6-C7=1.4584         C7-C6=1.4584         C7-O8=1.2055         C7-N9=1.3884         O8-C7=1.2055         N9-C7=1.3884         
N9-C10=1.4600        N9-C11=1.3842        C10-N9=1.4600        C10-H19=1.0866       C10-H20=1.0889       C10-H21=1.0888       
C11-N9=1.3842        C11-O12=1.1960       C11-N13=1.4173       O12-C11=1.1960       N13-C5=1.3391        N13-C11=1.4173       
N13-C14=1.4503       C14-N13=1.4503       C14-H22=1.0901       C14-H23=1.0902       C14-H24=1.0895       H15-C1=1.0907        
H16-C1=1.0890        H17-C1=1.0899        H18-C3=1.0730        H19-C10=1.0866       H20-C10=1.0889       H21-C10=1.0888       
H22-C14=1.0901       H23-C14=1.0902       H24-C14=1.0895       H25-N4=1.0107        
 C  H  Rav=1.0877 sigma=0.0050  Rmin=1.0730  Rmax=1.0907    10
 C  C  Rav=1.4213 sigma=0.0370  Rmin=1.3843  Rmax=1.4584     2
 N  H  Rav=1.0107 sigma=0.0000  Rmin=1.0107  Rmax=1.0107     1
 N  C  Rav=1.3896 sigma=0.0445  Rmin=1.3199  Rmax=1.4600    11
 O  C  Rav=1.2007 sigma=0.0047  Rmin=1.1960  Rmax=1.2055     2

 selected bond angles (degree)
 --------------------
H15-C1-N2=110.21               H16-C1-N2=110.36               H16-C1-H15=108.82              H17-C1-N2=108.71               
H17-C1-H15=108.79              H17-C1-H16=109.93              C3-N2-C1=126.98                C6-N2-C1=124.92                
C6-N2-C3=108.09                N4-C3-N2=109.91                H18-C3-N2=125.50               H18-C3-N4=124.59               
C5-N4-C3=107.90                H25-N4-C3=125.46               H25-N4-C5=126.64               C6-C5-N4=106.69                
N13-C5-N4=129.66               N13-C5-C6=123.66               C5-C6-N2=107.40                C7-C6-N2=130.99                
C7-C6-C5=121.59                O8-C7-C6=125.28                N9-C7-C6=110.94                N9-C7-O8=123.78                
C10-N9-C7=117.28               C11-N9-C7=128.45               C11-N9-C10=114.27              H19-C10-N9=108.13              
H20-C10-N9=109.73              H20-C10-H19=110.32             H21-C10-N9=109.67              H21-C10-H19=110.38             
H21-C10-H20=108.60             

 selected dihedral angles (degree)
 ---------------------------------
C3-N2-C1-H15=289.54           C3-N2-C1-H16= 49.76           C3-N2-C1-H17=170.39           C6-N2-C1-H15=108.66           
C6-N2-C1-H16=228.88           C6-N2-C1-H17=349.51           N4-C3-N2-C1=179.26            N4-C3-N2-C6=  0.00            
H18-C3-N2-C1=359.21           H18-C3-N2-C6=179.97           C5-N4-C3-N2=  0.00            C5-N4-C3-H18=180.05           
H25-N4-C3-N2=179.85           H25-N4-C3-H18=359.90          C6-C5-N4-C3=  0.00            C6-C5-N4-H25=180.14           
N13-C5-N4-C3=179.88           N13-C5-N4-H25=  0.03          C5-C6-N2-C1=180.71            C5-C6-N2-C3=359.97            
C7-C6-N2-C1=  1.78            C7-C6-N2-C3=181.03            N2-C6-C5-N4=  0.03            N2-C6-C5-N13=180.13           
C7-C6-C5-N4=179.08            C7-C6-C5-N13=359.18           O8-C7-C6-N2=359.91            O8-C7-C6-C5=181.10            
N9-C7-C6-N2=179.67            N9-C7-C6-C5=  0.86            C10-N9-C7-C6=179.81           C10-N9-C7-O8=359.58           
C11-N9-C7-C6=359.56           C11-N9-C7-O8=179.33           H19-C10-N9-C7=359.25          H19-C10-N9-C11=179.46         
H20-C10-N9-C7=119.63          H20-C10-N9-C11=299.84         H21-C10-N9-C7=238.84          H21-C10-N9-C11= 59.06         
           -------------------------------------------------
          |                Final Singlepoint                |
           -------------------------------------------------

          ...................................................
          :                      SETUP                      :
          :.................................................:
          :  # basis functions                  67          :
          :  # atomic orbitals                  67          :
          :  # shells                           39          :
          :  # electrons                        74          :
          :  max. iterations                   250          :
          :  Hamiltonian                  GFN2-xTB          :
          :  restarted?                      false          :
          :  GBSA solvation                  false          :
          :  PC potential                    false          :
          :  electronic temp.         5000.0000000     K    :
          :  accuracy                    1.0000000          :
          :  -> integral cutoff          0.2500000E+02      :
          :  -> integral neglect         0.1000000E-07      :
          :  -> SCF convergence          0.1000000E-05 Eh   :
          :  -> wf. convergence          0.1000000E-03 e    :
          :  Broyden damping             0.4000000          :
          ...................................................

 iter      E             dE          RMSdq      gap      omega  full diag
   1    -42.5214598 -0.425215E+02  0.374E+00    3.03       0.0  T
   2    -42.7013971 -0.179937E+00  0.240E+00    2.75       1.0  T
   3    -42.7707971 -0.694000E-01  0.137E+00    3.58       1.0  T
   4    -42.7767565 -0.595945E-02  0.363E-01    3.28       1.0  T
   5    -42.7787011 -0.194457E-02  0.163E-01    3.30       1.0  T
   6    -42.7790688 -0.367685E-03  0.555E-02    3.33       1.0  T
   7    -42.7790773 -0.853833E-05  0.137E-02    3.34       1.5  T
   8    -42.7790779 -0.592904E-06  0.504E-03    3.34       4.0  T
   9    -42.7790779 -0.394690E-07  0.211E-03    3.34       9.5  T
  10    -42.7790780 -0.290641E-07  0.585E-04    3.34      34.2  T
  11    -42.7790780 -0.198634E-08  0.233E-04    3.34      86.0  T

   *** convergence criteria satisfied after 11 iterations ***

         #    Occupation            Energy/Eh            Energy/eV
      -------------------------------------------------------------
         1        2.0000           -0.9185978             -24.9963
       ...           ...                  ...                  ...
        31        1.9996           -0.6230277             -16.9534
        32        1.9995           -0.6194594             -16.8563
        33        1.9979           -0.5974974             -16.2587
        34        1.9932           -0.5789615             -15.7543
        35        1.9817           -0.5631854             -15.3251
        36        1.9779           -0.5602236             -15.2445
        37        1.9748           -0.5581221             -15.1873 (HOMO)
        38        0.0652           -0.4353575             -11.8467 (LUMO)
        39        0.0099           -0.4050454             -11.0218
        40        0.0013           -0.3732207             -10.1559
        41        0.0000           -0.2886850              -7.8555
        42                         -0.2065791              -5.6213
       ...                                ...                  ...
        67                          0.5625665              15.3082
      -------------------------------------------------------------
                  HL-Gap            0.1227646 Eh            3.3406 eV
             Fermi-level           -0.4890447 Eh          -13.3076 eV

 SCC (total)                   0 d,  0 h,  0 min,  0.034 sec
 SCC setup                      ...        0 min,  0.000 sec (  0.586%)
 Dispersion                     ...        0 min,  0.000 sec (  0.535%)
 classical contributions        ...        0 min,  0.000 sec (  0.208%)
 integral evaluation            ...        0 min,  0.005 sec ( 14.593%)
 iterations                     ...        0 min,  0.016 sec ( 45.578%)
 molecular gradient             ...        0 min,  0.013 sec ( 38.110%)
 printout                       ...        0 min,  0.000 sec (  0.349%)

         :::::::::::::::::::::::::::::::::::::::::::::::::::::
         ::                     SUMMARY                     ::
         :::::::::::::::::::::::::::::::::::::::::::::::::::::
         :: total energy             -56.165546440113 Eh    ::
         :: gradient norm             14.921684108468 Eh/a0 ::
         :: HOMO-LUMO gap              3.340594509114 eV    ::
         ::.................................................::
         :: SCC energy               -42.779077977371 Eh    ::
         :: -> isotropic ES            0.141123531053 Eh    ::
         :: -> anisotropic ES         -0.005230480666 Eh    ::
         :: -> anisotropic XC          0.011966812159 Eh    ::
         :: -> dispersion             -0.022657727139 Eh    ::
         :: repulsion energy           0.531105277918 Eh    ::
         :: add. restraining         -13.917687899669 Eh    ::
         :: total charge               1.000000000002 e     ::
         :::::::::::::::::::::::::::::::::::::::::::::::::::::


last geometry written to: xtblast.xyz

########################################################################
[ERROR] Program stopped due to fatal error
-5- Geometry optimization failed
-4- xtb_geoopt: Trying to recover from failed geometry optimization
-3- xtb_geoopt: Geometry optimization did not converge
-2- optimizer_ancopt: Could not relax structure
-1- optimizer_relax: |grad| > 500, something is totally wrong!
########################################################################
