72
 energy: -99.347954359284 gnorm: 0.001815715450 xtb: 6.6.1 (8d0f1dd)
N           -1.84113500683235        2.84745051417172        2.21353656865821
C           -1.75879246962665        2.16316297156004        1.17057292975935
C           -2.90419539982725        1.91740729756545        0.22490980146693
C           -3.32074968354758        0.45502046747055        0.29813095885283
C           -4.29106488534233       -0.01504328292640       -0.62210904331474
C           -4.76819601438390       -1.32267734520055       -0.58082753073889
O           -5.71626117605839       -1.82346148098721       -1.40902553097555
C           -6.39928533460804       -0.94873287318244       -2.27814145238679
C           -4.26597166764964       -2.22632420480922        0.36206688603421
O           -4.76876896495666       -3.46665764357192        0.34408284304529
C           -4.33563594177312       -4.41748516801126        1.28781684729086
C           -3.22626933835164       -1.81315894623254        1.34275176549983
C           -2.81290683252346       -0.38889874609619        1.22819515524257
C           -2.37467897695381        2.24940787229180       -1.19565556313294
C           -1.46965273245327        1.17605832047209       -1.82889569298362
C           -0.12133104293744        1.08613878471871       -1.20805437185916
N            0.46294923478359       -0.02268645457322       -0.76915214390618
C            1.84075672042876        0.10200191445544       -0.29932274105010
C            2.83067704142725       -0.22772894540199       -1.42716952014820
C            4.24716082844902       -0.04573328617898       -0.95511916110579
C            4.91062342112114        1.15365349778919       -1.15543017474151
C            6.21287040251488        1.32831162573404       -0.71275617615334
C            6.87764622623242        0.30428541268496       -0.05383879874539
O            8.13934351641582        0.35791350880106        0.41189702742261
C            8.89534648669819        1.53083327419431        0.21638081649347
C            6.20227543371360       -0.92879444720267        0.16359184261822
O            6.92221313448518       -1.86800856697314        0.80936906882994
C            6.35426287788778       -3.13440912892333        1.04229199627063
C            4.90060880510418       -1.07944173792335       -0.28790675930644
C           -0.05693925678609       -1.24235412372959       -0.73680219891513
C           -4.15415770868959        2.79073562037057        0.54335762813637
C           -4.77591339521987        2.41747777378091        1.88737299775291
C           -3.86055313949925        4.28805051568617        0.51037666706727
H           -4.68334119507913        0.66174087577074       -1.35997036803431
H           -6.87731400308901       -0.13281418993151       -1.72857450369452
H           -7.16392739701613       -1.55632859940497       -2.75795007467390
H           -5.73455297855180       -0.53820434442979       -3.04418576160714
H           -4.55314571132526       -4.09795887203296        2.31155795474852
H           -4.89425577910406       -5.32559540230834        1.06934432747616
H           -3.26421000514958       -4.62030225448133        1.19389293745377
H           -3.59188856052203       -1.99812886513578        2.36590654529725
H           -2.09459931219603       -0.05241055144049        1.95793957396110
H           -3.22660589306570        2.40004128150243       -1.85880868482960
H           -1.82580054307372        3.19104373440893       -1.15049485598043
H           -1.97996135554247        0.21515590968318       -1.80860617057152
H           -1.33961616000038        1.45857115397978       -2.88100906162512
H           -0.82431729275609        1.69763919067789        0.81561352080387
H            0.47939919689987        1.98136145970693       -1.20815225022581
H            1.99667413333454       -0.58071351203216        0.53805424657398
H            2.01804827644980        1.12098432867874        0.05032543077499
H            2.63594467245809        0.43336109514002       -2.27361420518489
H            2.67053837359036       -1.25718754063642       -1.75277813749643
H            4.41907676406691        1.96261660168215       -1.67401631324285
H            6.70594764485627        2.26940047488050       -0.89279703918866
H            8.43634025166323        2.39119363138532        0.71278857158429
H            9.02664534767110        1.74938172545587       -0.84766063929700
H            9.86599851025665        1.33065773948336        0.66604646348921
H            7.12407043623260       -3.71002989221078        1.55266039797314
H            5.46983001192172       -3.06607717989485        1.68392024701482
H            6.09023615371175       -3.63450080744885        0.10527863079767
H            4.38375889019839       -2.01448765751416       -0.13826728840341
H            0.52557217438870       -2.04523296164550       -0.33622507673032
H           -1.03345277961925       -1.43966103941557       -1.12503898744897
H           -2.34094421180800       -2.46317700442935        1.23861175681471
H           -4.89300004519360        2.57838009337315       -0.23770099321664
H           -4.07765176054076        2.62919608979500        2.69045947300730
H           -5.04419374251642        1.36420671285052        1.91960987133246
H           -5.67666994157771        3.00427414701641        2.04690913946875
H           -3.12334707733215        4.54418633770932        1.26477742453314
H           -3.50255049222158        4.60891359308848       -0.46403656879104
H           -4.77394089461803        4.83568805401672        0.72775055810753
H           -0.99655327004302        2.97264297678542        2.76320981065094
