25
 energy: 0.000000000000 xtb: 6.6.1 (8d0f1dd)
C            3.23720163006194        1.16630919979326        0.08434469647475
N            2.29877817382611        0.07527477071623        0.03981603040599
C            2.58028210190900       -1.21425402444508        0.03006176031096
N            1.43813958087363       -1.93419271955128        0.00098261760884
C            0.39035688448383       -1.05887472636071       -0.00790371836672
C            0.93510056364412        0.21347819449412        0.01709077491437
C            0.09450143893243        1.40504303904423       -0.00410947031874
O            0.49712751527797        2.54126714362870       -0.00342325688240
N           -1.25076640035757        1.06271879480407       -0.03085478223738
C           -2.21907211982101        2.15522099834493       -0.05001256985998
C           -1.81739487048744       -0.20012725993278       -0.04692818574614
O           -2.99983886758376       -0.37846417018721       -0.07008878229737
N           -0.92618586207120       -1.30210215599479       -0.03682761578324
C           -1.46982264913417       -2.64643102187190       -0.06029820460571
H            3.71247264356769        1.21471455160235        1.06488849150277
H            4.00791497605742        1.03430808813993       -0.67357694370751
H            2.69910007168542        2.09770118228144       -0.09130154882931
H            3.56654120610678       -1.63682992603973        0.04233140067262
H           -1.67107961066214        3.09322851271934       -0.02552706933167
H           -2.82428953597071        2.09428624779827       -0.95318082946668
H           -2.87644029173232        2.07745725625962        0.81450067533302
H           -1.17061996399332       -3.19584890659852        0.83242232437030
H           -1.14560257411436       -3.17511610292205       -0.95688275822323
H           -2.55549792440841       -2.55659984320617       -0.07459039797972
H            1.38130855184625       -2.94313852034425       -0.01389874181052
25
 energy: -1.429484657603 xtb: 6.6.1 (8d0f1dd)
C            3.25921899580296        1.16354914181259        0.08543720811249
N            2.31590418459243        0.08830143098761        0.03787068048852
C            2.60767394365810       -1.23849251822798        0.01734227130086
N            1.43722145392751       -1.94626546098631       -0.00647029708941
C            0.40522886200100       -1.06155842648586        0.00170781132077
C            0.93598725917725        0.21784979297955        0.02946302543525
C            0.10012249704617        1.39234767306455        0.02020736231438
O            0.50475288475103        2.55492409056674        0.02227982835191
N           -1.27126634900050        1.05607879110614       -0.03400396267762
C           -2.25327128914122        2.15731142246143       -0.09932039105364
C           -1.81908282711983       -0.20470114731939       -0.01720668089312
O           -3.01368049707390       -0.39606797213590       -0.01872049868407
N           -0.92506518366281       -1.30486835639547       -0.01483853119959
C           -1.45699067851480       -2.65017112629808       -0.04652504199035
H            3.73942635384123        1.20453635966932        1.06658155163074
H            4.02669516192335        1.02433949728316       -0.67766364088215
H            2.71966280530466        2.09187658410670       -0.08866197730584
H            3.58623089560661       -1.66361624141203        0.01533326878815
H           -1.67390058443888        3.07650985275560        0.04011556425493
H           -2.91601201551354        2.28956367032142       -1.03265374723323
H           -2.95000500988888        2.03534359893023        0.72163414006502
H           -1.14841892700756       -3.20897871256477        0.83918245145984
H           -1.12940481313412       -3.17216189190408       -0.94812763932522
H           -2.54261540837092       -2.56631767500223       -0.05724773126824
H            1.37380295317089       -2.95030377514094       -0.02868112777307
25
 energy: 10.288857145291 xtb: 6.6.1 (8d0f1dd)
C            3.28655693512158        1.15037139261933        0.08683620889861
N            2.32928073573866        0.09557617596499        0.03511830984910
C            2.62855670127602       -1.26009411204429       -0.00218367931728
N            1.43502315434920       -1.95291557857290       -0.01760272028667
C            0.41969172050091       -1.06417151098465        0.01405586426310
C            0.93326622252011        0.22310251205725        0.04566973704360
C            0.10399584165673        1.37760339497588        0.03929164055375
O            0.50519547632717        2.55337568211543        0.06311350819337
N           -1.30315637121050        1.05905980765114       -0.05500042868914
C           -2.29361944102749        2.17357401301117       -0.15437404817224
C           -1.81779720333028       -0.20686953902240        0.01988944173118
O           -3.01498131874414       -0.42206827734632        0.06780553523490
N           -0.92260164969599       -1.30425386021758        0.01832263805734
C           -1.43771737428554       -2.65375308453911       -0.02590799007304
H            3.77553656160712        1.18569725443944        1.06640326863869
H            4.05231037450966        1.00608145684198       -0.68001776808709
H            2.75491871937628        2.08266769232242       -0.08389145198416
H            3.60092787234723       -1.68646689133173       -0.02526001526626
H           -1.68768525231090        3.06656553157290        0.13657004648978
H           -2.98934516417586        2.53116745993640       -1.13842767551432
H           -3.06878435684503        1.96340327605019        0.58517102639139
H           -1.11795520313363       -3.22653644667480        0.84903412938047
H           -1.10693792272774       -3.16474108735400       -0.93532386242167
H           -2.52381213503995       -2.58229962544476       -0.03143889132108
H            1.37134774513264       -2.95504703385399       -0.05081892744503
25
 energy: 22.192606266960 xtb: 6.6.1 (8d0f1dd)
C            3.31146482590372        1.13130546213782        0.09106354208291
N            2.33774693244139        0.09207246170485        0.03245827991443
C            2.63506290601406       -1.27267839965153       -0.02027130386682
N            1.43517689865506       -1.95557762384770       -0.03120837205358
C            0.42797619209155       -1.06513425532129        0.02278281446006
C            0.93459343724412        0.22639828994781        0.05833050593006
C            0.10860337026526        1.37741188804698        0.05140555503245
O            0.50615783350272        2.55295346713630        0.10331769920645
N           -1.32286224496816        1.07430127600681       -0.07412689989296
C           -2.32603140550208        2.19528048085427       -0.19108526980696
C           -1.81529679055439       -0.20142645042130        0.05891854523530
O           -3.00883237703259       -0.43648133684607        0.15251605785728
N           -0.91806634885867       -1.29793564935381        0.04872831218496
C           -1.42101085916274       -2.65255581256041       -0.00963243431146
H            3.80612362753949        1.15727824222024        1.06926094456249
H            4.07618441818710        0.98211876461164       -0.67690677202377
H            2.79548102871827        2.07380564808213       -0.07410515629864
H            3.60618848726002       -1.70166588577244       -0.06601969137885
H           -1.74358182016708        3.06781560556583        0.19584052666742
H           -3.03310739620861        2.67767516407846       -1.21474229667347
H           -3.16732346375403        1.90576453129233        0.45861556513778
H           -1.09041993376556       -3.23766940058227        0.85407462738025
H           -1.08785656619973       -3.14923659396763       -0.92749749591439
H           -2.50789238665829       -2.59616719322393       -0.00858301539917
H            1.37373630294540       -2.95862407796512       -0.07610037188449
25
 energy: 28.331274907164 xtb: 6.6.1 (8d0f1dd)
C            3.32434954395425        1.11863705549051        0.09544275465202
N            2.34154338736976        0.08645715892260        0.02946627001283
C            2.63342933002776       -1.27503384511460       -0.02697697708755
N            1.43676056069515       -1.95512756104557       -0.03816334974326
C            0.43033512298797       -1.06520541013395        0.02341468419535
C            0.93782579934018        0.22693160992975        0.06093670678933
C            0.11335906719966        1.38162746844655        0.05136110649583
O            0.50613718844474        2.55194429971021        0.12481706173610
N           -1.32783617580048        1.08337001136285       -0.08849894984795
C           -2.34082594191131        2.20378013147998       -0.20159216803788
C           -1.81330039530621       -0.19566429305501        0.07807667402589
O           -3.00053526721516       -0.43787711964966        0.20256110314838
N           -0.91483689448469       -1.29192235717088        0.06198194951111
C           -1.41338646231318       -2.64929359925381       -0.00264621193782
H            3.81775941822406        1.13763902054771        1.07437885417659
H            4.08960957559597        0.96605044440924       -0.67100938867773
H            2.81962808405917        2.06807772687759       -0.06728335648106
H            3.60495646190138       -1.70506287069387       -0.08649249865464
H           -1.79198324763503        3.05957406197275        0.21718356358829
H           -3.06858250467374        2.73996382064739       -1.24624890276600
H           -3.19418076608638        1.87767363039497        0.39039697315732
H           -1.07690232046442       -3.23836840936129        0.85565295700948
H           -1.07851355372535       -3.13730473866810       -0.92445845788583
H           -2.50038485958224       -2.60264685677767        0.00203406781000
H            1.37778951733435       -2.95919077709573       -0.08730056904150
25
 energy: 31.052864312077 xtb: 6.6.1 (8d0f1dd)
C            3.32564253371669        1.11539505434453        0.09281905250749
N            2.34264760965569        0.08247446532440        0.02459484306826
C            2.62986667650375       -1.27225745401622       -0.02505827454176
N            1.43857293049642       -1.95408300684764       -0.03684460349317
C            0.42938105789546       -1.06569121241739        0.01979384098861
C            0.94082857104661        0.22563491793123        0.05797045400378
C            0.11912261182791        1.38495365809630        0.04952341191855
O            0.50756003359369        2.55091707749506        0.13348902487740
N           -1.32298572806984        1.08490322443482       -0.09530355967475
C           -2.33750791810567        2.20440440276928       -0.19425863710088
C           -1.81196552623284       -0.19184146238545        0.07800812645872
O           -2.99382439531720       -0.43229109351631        0.21707401705584
N           -0.91379851167217       -1.28887685104575        0.06201838017957
C           -1.41407358097372       -2.64675588234594        0.00060153254576
H            3.81599124184912        1.13448747809409        1.07261869408543
H            4.09116780570127        0.96162555997746       -0.67247699313750
H            2.82297678283419        2.06547821997186       -0.07132342863995
H            3.60210296559269       -1.70195348812109       -0.09001133920397
H           -1.80866656136480        3.04985031527860        0.25795082355840
H           -3.06939702484253        2.76710293777436       -1.26763571512476
H           -3.20550269353335        1.84458692630362        0.35021985912810
H           -1.07693995355245       -3.23280583094025        0.85975909129645
H           -1.07944270496208       -3.13533803207693       -0.92005978258102
H           -2.50064812092217       -2.60219917793513        0.00629256785676
H            1.38110656677158       -2.95869214397551       -0.08272748988410
25
 energy: 32.461713109010 xtb: 6.6.1 (8d0f1dd)
C            3.32395233750928        1.11605233125929        0.09244357080496
N            2.34352095542668        0.08013063439450        0.02235259610736
C            2.62780396055547       -1.26976547229842       -0.02112046332028
N            1.43994068063932       -1.95361602870311       -0.03566020225955
C            0.42804637525285       -1.06582817777875        0.01641825787381
C            0.94296549444924        0.22473849972873        0.05501150099699
C            0.12334624972731        1.38665497330337        0.04675115851511
O            0.50893709397781        2.55097743931161        0.13480536329568
N           -1.31717273314252        1.08405153334131       -0.09491473351238
C           -2.32892609208382        2.20244994387794       -0.18304472006924
C           -1.81206177192896       -0.19058445127435        0.07981662118246
O           -2.99130549504278       -0.42927645809311        0.22373013644025
N           -0.91358933229750       -1.28814017401706        0.05946913078565
C           -1.41601130323901       -2.64622684719979       -0.00052765701093
H            3.81255199000206        1.13617092289172        1.07270468696682
H            4.08999338049771        0.96338128137074       -0.67218369182371
H            2.81939639468941        2.06480063192659       -0.07244537552917
H            3.60033982436080       -1.70002749973165       -0.08924782128077
H           -1.81400112070113        3.04131716990276        0.26625939007474
H           -3.07753760961723        2.76886831159933       -1.27267756105182
H           -3.19568883243527        1.83882590684936        0.33415635225081
H           -1.07977476814922       -3.23126239120241        0.85964064089399
H           -1.08220675180842       -3.13597571874125       -0.92061821577291
H           -2.50233799482969       -2.60021943081669        0.00530687009498
H            1.38203373612385       -2.95846832772870       -0.07939193850560
25
 energy: 33.383783652619 xtb: 6.6.1 (8d0f1dd)
C            3.32220015876174        1.11797982606193        0.09025061879340
N            2.34444566797572        0.07958027964186        0.02116726314699
C            2.62794579603263       -1.26943913279642       -0.01762345629127
N            1.44043673235486       -1.95394325052507       -0.03371054468551
C            0.42766934955390       -1.06570536479103        0.01504142707819
C            0.94404405028261        0.22461608916758        0.05350933727556
C            0.12604581899490        1.38705769647019        0.04686990143554
O            0.51115862304909        2.55217220143572        0.13303181769817
N           -1.31297401942198        1.08356263308475       -0.09184697694834
C           -2.32089820813570        2.20100405050559       -0.17445820573953
C           -1.81180810548352       -0.19020492842022        0.07817135409062
O           -2.99120837969499       -0.42788944380211        0.22060052913218
N           -0.91363575933502       -1.28847115486485        0.05688181633217
C           -1.41788031057825       -2.64622559949639       -0.00048239854706
H            3.81087251207426        1.13977464623017        1.07034096739734
H            4.08818975760741        0.96607398855053       -0.67462323582043
H            2.81467176289876        2.06499664311616       -0.07532681658260
H            3.60013580354536       -1.70058323790425       -0.08761016924118
H           -1.81094946428600        3.04243947806612        0.28225761105847
H           -3.07654451557686        2.77001902889570       -1.28084445651626
H           -3.19881866449478        1.82730508118682        0.32496277673094
H           -1.08301188526593       -3.23010802636585        0.86121607885170
H           -1.08467277088031       -3.13841372615037       -0.91948996105282
H           -2.50420486337058       -2.59790003203261        0.00493016003734
H            1.38100558132889       -2.95866914309199       -0.07618154148635
25
 energy: 35.074305820515 xtb: 6.6.1 (8d0f1dd)
C            3.32106259693915        1.11992457837099        0.08926580079728
N            2.34544750282602        0.07963341755230        0.02150927449674
C            2.62922127890006       -1.27024068668435       -0.01373195544942
N            1.44075087505323       -1.95451200943332       -0.03222791679430
C            0.42791077461382       -1.06539310839667        0.01516679812961
C            0.94448902534786        0.22490197844459        0.05344739035234
C            0.12693239203404        1.38638173291666        0.04879203161879
O            0.51264963725266        2.55330609811324        0.12895189593154
N           -1.31078338696972        1.08329662445885       -0.08499022515302
C           -2.31385565429168        2.19842423685584       -0.16535059337161
C           -1.81169674386971       -0.19112824411709        0.07819924700797
O           -2.99236497031104       -0.42896857159471        0.21394076080446
N           -0.91354967320795       -1.28971735870771        0.05503634634218
C           -1.41857400150106       -2.64710294263396       -0.00100079563629
H            3.81070355704332        1.14264307609122        1.06893690633574
H            4.08701934021534        0.96903591336076       -0.67609505180955
H            2.81076186536288        2.06554902544767       -0.07621687017922
H            3.60060421192419       -1.70256788576739       -0.08756763900568
H           -1.80481589197466        3.04495669467819        0.28545355773119
H           -3.08739216495084        2.77126366788340       -1.28956176423538
H           -3.19593489369624        1.82657099198426        0.32449440867313
H           -1.08492407829809       -3.23074460222738        0.86168721693022
H           -1.08537072827372       -3.14078980999847       -0.91940536156865
H           -2.50506846507127       -2.59678185325487        0.00370204582584
H            1.37899226283967       -2.95891236117009       -0.07540161162667
25
 energy: 41.291620071241 xtb: 6.6.1 (8d0f1dd)
C            3.32060798374063        1.12205332921539        0.08827745707855
N            2.34802395845645        0.07922477060849        0.02317579793793
C            2.63303173124537       -1.27314842084276       -0.00512997493830
N            1.44227642317083       -1.95608132269752       -0.03010419601097
C            0.43000082882446       -1.06544641525200        0.01679779998984
C            0.94590638527849        0.22486521793267        0.05458958088036
C            0.12883793092943        1.38391429306330        0.05545484174451
O            0.51744409314637        2.55416039984801        0.12139089840593
N           -1.30746602435307        1.08409448079480       -0.06465783747275
C           -2.30018328600931        2.19132156850326       -0.14310017096281
C           -1.80983816523624       -0.19400546335801        0.08082975183340
O           -2.99376914159307       -0.43254007301159        0.20120672187985
N           -0.91226702248133       -1.29281388087629        0.05306781142995
C           -1.41823376866991       -2.64923013328790       -0.00178022149452
H            3.81211212505664        1.14602572034672        1.06716197430594
H            4.08630985306105        0.97287336577173       -0.67812936255723
H            2.80614990933320        2.06563215520304       -0.07684224036855
H            3.60236544571751       -1.70693915943869       -0.09132839932088
H           -1.79287372429917        3.05221648392202        0.28022770830775
H           -3.13139032037013        2.78786430194709       -1.31812227085435
H           -3.19417150859603        1.82840811734911        0.32655405098256
H           -1.08634694435698       -3.23312654990708        0.86189008781529
H           -1.08522477203299       -3.14440882162632       -0.91974585283893
H           -2.50503837898196       -2.59614261163505        0.00171149878607
H            1.37595105695601       -2.95974275040042       -0.07636155841141
25
 energy: 74.917471728110 xtb: 6.6.1 (8d0f1dd)
C            3.31906429813990        1.13365702001987        0.08293070682862
N            2.36469472063312        0.07567495800110        0.03197738076405
C            2.65739976306431       -1.29124848609632        0.05081583481370
N            1.45384236699676       -1.96609208536997       -0.01845289622040
C            0.44438803792348       -1.06708787273953        0.02492311016942
C            0.95591011424944        0.22352346963942        0.05879685446507
C            0.14281756680547        1.36707849278655        0.09746343665501
O            0.54950603987523        2.55795256216760        0.07731304077210
N           -1.28471961063513        1.08879459945502        0.07155286683215
C           -2.20589679107345        2.13837729446189        0.01080860722763
C           -1.79596072628880       -0.21495269528955        0.10045664204453
O           -3.00048807972649       -0.45656102974066        0.12898938466331
N           -0.90298819947374       -1.31368500269789        0.04100890933292
C           -1.41501385483688       -2.66350731380694       -0.00547281559605
H            3.81986931288210        1.16429269998641        1.05792304594146
H            4.08413855882148        0.99404321025641       -0.68859321585920
H            2.78081643608454        2.06549468773661       -0.08064790246050
H            3.61353753770701       -1.73207339895282       -0.11753097303810
H           -1.71625719509555        3.09779807640493        0.24863787485234
H           -3.44825721419680        2.92493970059520       -1.53071272898913
H           -3.18343403256474        1.83671239797828        0.33314758207787
H           -1.09252666933068       -3.24831545917088        0.86380719598036
H           -1.08413970053601       -3.16663994262265       -0.92149828646431
H           -2.50375545050804       -2.59398294977904       -0.00830972802998
H            1.35966743901975       -2.96516433105109       -0.08230003061558
25
 energy: 92.009401766949 xtb: 6.6.1 (8d0f1dd)
C            3.31658910403211        1.14262395482918        0.07940694604308
N            2.37880981613687        0.07005949371796        0.03422590766335
C            2.67590651935734       -1.30268584026613        0.08748804704852
N            1.46615442017838       -1.97484210038360       -0.01186552039356
C            0.45486080408385       -1.06881746804045        0.02610722118795
C            0.96627713486072        0.22080906207320        0.05607081455102
C            0.15770759731568        1.35239087327158        0.12741267002688
O            0.57257334347242        2.56025025822411        0.05600401639295
N           -1.25288759489406        1.08848080289798        0.18420995701875
C           -2.10560911381075        2.09091349655961        0.16435457837364
C           -1.78171664476059       -0.23077853279716        0.12278717710126
O           -3.00172938056904       -0.46984619931261        0.09615130542734
N           -0.89257111096695       -1.33145743998739        0.02999795095740
C           -1.41259544645296       -2.67472457909049       -0.00787754602201
H            3.82236875692980        1.17533161720707        1.05208973571214
H            4.08243211277125        1.00990218728109       -0.69469717150987
H            2.76021570416200        2.06559893101418       -0.08257094444319
H            3.61927345389091       -1.74823941638168       -0.13535319271461
H           -1.65763128210879        3.12246854384637        0.23763478836779
H           -3.74286591963187        3.05818165518897       -1.73594634412841
H           -3.17671944252548        1.83564310184491        0.29492876669059
H           -1.09694401548580       -3.25860942049930        0.86680713413705
H           -1.08483666878027       -3.18414660853072       -0.92271515441684
H           -2.50306502970186       -2.58971842237091       -0.01396596299404
H            1.34821755043337       -2.96975934812383       -0.08365128392991
25
 energy: 93.250477643112 xtb: 6.6.1 (8d0f1dd)
C            3.31322025459728        1.12977088643207        0.08891205144736
N            2.36897493085940        0.05368562682926        0.02092165046105
C            2.65364490051333       -1.27458151940808        0.01194668504816
N            1.47877413017225       -1.97285035034801       -0.02485212226071
C            0.44092916043566       -1.07513343107407        0.01133431700819
C            0.97330195569367        0.20699420138777        0.03674730029923
C            0.16205144265155        1.34976398238009        0.08488871566381
O            0.53730388961691        2.54234694770669        0.14387249281392
N           -1.19243887106340        1.05705689698686        0.14291465256335
C           -2.01820381319716        2.08188432697624        0.28354135710786
C           -1.76917483862482       -0.22676063232909        0.13125047797245
O           -2.97121107812439       -0.42934479154185        0.22246491980677
N           -0.87860483101256       -1.33027193161474        0.03727623854808
C           -1.40974947219091       -2.67018358803247       -0.00533555740675
H            3.80667995536390        1.15077134340697        1.06362292057609
H            4.08071520718340        0.98667605840728       -0.67864554791153
H            2.77972098847386        2.06418565019891       -0.07431311064629
H            3.59317748735430       -1.70665828998284       -0.10686045821484
H           -1.69910026611237        3.04073439561823        0.27466449064176
H           -3.88320689524104        3.14387836163008       -1.84793723058195
H           -3.15700394520447        1.83894050253793        0.13336533750386
H           -1.08699388455077       -3.24540340109824        0.86877452444023
H           -1.08410020777151       -3.16920023508270       -0.92279035730105
H           -2.49960756907638       -2.58939112840005       -0.00281011061292
H            1.37311603719054       -2.96788127941426       -0.06591974081883
25
 energy: 88.535810954801 xtb: 6.6.1 (8d0f1dd)
C            3.31377494307606        1.12447585149143        0.09092521797250
N            2.36577462262667        0.04804170250345        0.03813030594945
C            2.64808871463094       -1.27254130947050       -0.00093999594413
N            1.48210185983197       -1.97256111743665       -0.01428638693574
C            0.44273477931976       -1.08509870615366        0.02917566769396
C            0.97714111402491        0.19942802948110        0.06033552055715
C            0.16329666674167        1.34865003337527        0.08886669976457
O            0.54990428504664        2.52737882213532        0.12460110277768
N           -1.20121272877712        1.04842320507251        0.11812677023163
C           -2.06928108213896        2.08682186088445        0.26568594361637
C           -1.76596418282209       -0.23780305455653        0.11977480826789
O           -2.95912408548056       -0.43711982569158        0.17808442776273
N           -0.87660971654210       -1.33258340768638        0.04629389609331
C           -1.40860883001038       -2.67415720769524       -0.01263359352585
H            3.80488581518230        1.16105034760021        1.06525915794378
H            4.07910479733902        0.98973167411565       -0.67780681755129
H            2.77593216126847        2.05675804415055       -0.07437106544420
H            3.60483847321482       -1.70616344072283       -0.09112313963171
H           -1.69902743711359        3.06948582402234        0.23055528172748
H           -3.97950124689094        3.16076568368506       -1.84623396845139
H           -3.05187855759159        1.87953674773952        0.23469668796970
H           -1.09475977400278       -3.25304056428312        0.85965103161247
H           -1.08187733424955       -3.17394320076107       -0.92743642899936
H           -2.49626187960786       -2.59521851461627       -0.01534798792391
H            1.38874329086057       -2.97128887501107       -0.06294923938576
25
 energy: 88.217318150485 xtb: 6.6.1 (8d0f1dd)
C            3.31975664837597        1.12348135728455        0.08380092664875
N            2.37680267538891        0.04867097079733        0.03112509408385
C            2.66134335120498       -1.28404900319318        0.00219668866987
N            1.48821466401076       -1.97648159362638       -0.02409680873902
C            0.45632074966301       -1.09012586423389        0.03008225410519
C            0.98551682059591        0.19993589321727        0.06819171316955
C            0.18274575212793        1.34502794308575        0.13563354276212
O            0.58684886560107        2.53208260260464        0.11298798455319
N           -1.20275942410188        1.05530717352097        0.19698685648809
C           -2.06131358989625        2.07039633870641        0.30699502930925
C           -1.75864363587876       -0.24576489289289        0.15820323241585
O           -2.96231252036395       -0.45047057191334        0.17966429281183
N           -0.87603662659670       -1.33855301600224        0.05105993854554
C           -1.40835844392282       -2.67840208402400       -0.01300032180978
H            3.80517386282707        1.15846627800783        1.06272709664326
H            4.08676600618175        0.99323317074688       -0.68350663698102
H            2.77291170284680        2.05227802208474       -0.07857350271762
H            3.62704563965981       -1.72113087200553       -0.09613444535376
H           -1.66921154987304        3.10543000395594        0.22385062074879
H           -4.08500931399470        3.22364442832205       -1.94538050301176
H           -3.13089245732117        1.87817913944401        0.18894956909962
H           -1.09352765459662       -3.26430429518769        0.85555907871624
H           -1.08650557409976       -3.17634202604907       -0.93201892621876
H           -2.49586184787720       -2.59518569799671       -0.01225435064776
H            1.39320056797516       -2.97629480248146       -0.07601452714422
25