25
 energy: -42.442898717882 xtb: 6.6.1 (8d0f1dd)
C            3.31717551119560        1.12162770460758        0.08750062028355
N            2.37301283981370        0.04283396084159        0.03584055734907
C            2.64954883591376       -1.27942534496197       -0.00416155671075
N            1.48628139089878       -1.97218465722006       -0.01941720504088
C            0.45269900326636       -1.09544922715112        0.03196007037456
C            0.98616831652992        0.19621498329811        0.07661709591789
C            0.18833018461214        1.35482052130209        0.12891730786422
O            0.57431936590776        2.52708806963473        0.11979504811202
N           -1.20670723423083        1.05128972541435        0.18432638128554
C           -2.06633165424227        2.08247602833845        0.29088843954523
C           -1.76072704928984       -0.24159194893354        0.15472252587716
O           -2.95746862473886       -0.43276882094366        0.21444915757380
N           -0.87878038462433       -1.32663540342604        0.04935245860604
C           -1.40958934700010       -2.67152858110408       -0.01216907434430
H            3.80587264173269        1.15408686818746        1.06391561181577
H            4.08022172502203        0.99300298939032       -0.68136806973548
H            2.77577682354144        2.05575799511023       -0.07312542168596
H            3.62245031008058       -1.71617642181503       -0.09111050068072
H           -1.67121680392546        3.08248811421616        0.22785660446798
H           -4.07162921434595        3.21516995159148       -1.93004666097767
H           -3.11321488564486        1.87869987448981        0.20501976450260
H           -1.09326546579908       -3.25111768965022        0.85794839619222
H           -1.08452680257700       -3.17101059108345       -0.92818861839121
H           -2.49614514438585       -2.59179824352424       -0.01136021629700
H            1.40078634643757       -2.97525368241898       -0.07467233544674
