25
 energy: 54.148511303310 xtb: 6.6.1 (8d0f1dd)
C            3.58520140386512        0.89190131738222        0.11107108840894
N            2.61302509049005       -0.16736099560988        0.04133809131864
C            2.85541713714450       -1.46892291745199       -0.02829329494423
N            1.67671366525800       -2.14110404077522       -0.05154352115423
C            0.65816416925001       -1.21921992751872        0.00639052896829
C            1.26186762842438        0.02928720044068        0.06707232132517
C            0.42438738039659        1.25936302109445        0.08711120563604
O            0.93309594421915        2.37013633825346        0.10603094653388
N           -0.88609272589688        1.00294016975817        0.06867819945371
C           -3.90495137583307        3.17966749470081       -0.17791569977953
C           -1.50652438103135       -0.14288160200440        0.03452504604266
O           -2.69160721134920       -0.35087912892077        0.01999633840345
N           -0.65170991792531       -1.40475207992753        0.00288215247264
C           -1.28539060223199       -2.69599021727606       -0.03585756891314
H            4.00512880021498        0.95354681274489        1.11656980298373
H            4.39084418397008        0.71732732420115       -0.60099588789128
H            3.07359425043419        1.83133924382219       -0.10865075134982
H            3.82004307369341       -1.92855987187172       -0.06704621077574
H           -3.13322215956031        3.91703880325668       -0.14811542978585
H           -4.18963495635814        2.74214783464664       -1.10937986626060
H           -4.30911035055376        2.79274624432041        0.73137286607543
H           -1.00530301474359       -3.29550662517368        0.83362634916244
H           -1.03633478649479       -3.23203613264234       -0.95493559478521
H           -2.36076217070884       -2.50969757600630       -0.01158662488599
H            1.57537523029968       -3.14150190069885       -0.10531057406458
