25
 energy: 0.000000000000 xtb: 6.6.1 (8d0f1dd)
C            3.23720163006194        1.16630919979326        0.08434469647475
N            2.29877817382611        0.07527477071623        0.03981603040599
C            2.58028210190900       -1.21425402444508        0.03006176031096
N            1.43813958087363       -1.93419271955128        0.00098261760884
C            0.39035688448383       -1.05887472636071       -0.00790371836672
C            0.93510056364412        0.21347819449412        0.01709077491437
C            0.09450143893243        1.40504303904423       -0.00410947031874
O            0.49712751527797        2.54126714362870       -0.00342325688240
N           -1.25076640035757        1.06271879480407       -0.03085478223738
C           -2.21907211982101        2.15522099834493       -0.05001256985998
C           -1.81739487048744       -0.20012725993278       -0.04692818574614
O           -2.99983886758376       -0.37846417018721       -0.07008878229737
N           -0.92618586207120       -1.30210215599479       -0.03682761578324
C           -1.46982264913417       -2.64643102187190       -0.06029820460571
H            3.71247264356769        1.21471455160235        1.06488849150277
H            4.00791497605742        1.03430808813993       -0.67357694370751
H            2.69910007168542        2.09770118228144       -0.09130154882931
H            3.56654120610678       -1.63682992603973        0.04233140067262
H           -1.67107961066214        3.09322851271934       -0.02552706933167
H           -2.82428953597071        2.09428624779827       -0.95318082946668
H           -2.87644029173232        2.07745725625962        0.81450067533302
H           -1.17061996399332       -3.19584890659852        0.83242232437030
H           -1.14560257411436       -3.17511610292205       -0.95688275822323
H           -2.55549792440841       -2.55659984320617       -0.07459039797972
H            1.38130855184625       -2.94313852034425       -0.01389874181052
25
 energy: -1.040158447823 xtb: 6.6.1 (8d0f1dd)
C            3.28485517916946        1.16920441779028        0.05437373193463
N            2.30959935124348        0.10673123688523        0.01320649663279
C            2.58933563277857       -1.22173172654015        0.02363092934119
N            1.41799737407062       -1.92936540003001       -0.00088060374789
C            0.38625002538740       -1.04724744192319       -0.01018912531018
C            0.92297156286426        0.23360009332194        0.00688950748844
C            0.07955635118964        1.40025664305651       -0.00214723982016
O            0.46702379874007        2.56830533690907        0.00344404010262
N           -1.28236614099070        1.04988460334862       -0.02938468756050
C           -2.25120780330220        2.14051697280607       -0.04798885422881
C           -1.83965720523648       -0.20397409011688       -0.04721462292683
O           -3.03522615766797       -0.39236557761644       -0.06995939690908
N           -0.94461213602628       -1.29920112341692       -0.03585963660956
C           -1.47969609233383       -2.64408637421279       -0.05577384297422
H            3.77384788120963        1.19444100706286        1.00534918440999
H            4.21541912167826        1.04030222355482       -0.57329299185067
H            2.73925089172673        2.10686892265813       -0.09235966510322
H            3.56567295791446       -1.64685700831377        0.03908114831931
H           -1.69979419753518        3.07774524194903       -0.02294255889630
H           -2.85745128795242        2.08373104943732       -0.95185563831935
H           -2.90991277861069        2.06559301694118        0.81673579017739
H           -1.17896473718936       -3.19205082705705        0.83920731559046
H           -1.14860948931548       -3.17837668638227       -0.94850303715244
H           -2.56579983676871       -2.55946102927131       -0.07384025872487
H            1.35373240289296       -2.93343487866827       -0.01269208771544
25
 energy: 13.634816047347 xtb: 6.6.1 (8d0f1dd)
C            3.36092588255043        1.16118837427789        0.01980652427826
N            2.32642279470465        0.14291162057506       -0.03321235207747
C            2.58893979634821       -1.21958544981938        0.01124738393470
N            1.39289679325565       -1.90934308523758       -0.00383991764785
C            0.38015130057034       -1.02449044850958       -0.01479141397849
C            0.91207531349553        0.26602560529256       -0.01359158573074
C            0.05728264458160        1.39637777580596       -0.00178528543847
O            0.40879217638338        2.58692197061409        0.01679941199729
N           -1.32618937689182        1.03805742391129       -0.02765569410165
C           -2.30051062074626        2.12237747730444       -0.04508232635288
C           -1.86417034352714       -0.20854512201078       -0.04686019080833
O           -3.06357398272217       -0.41401560887433       -0.07023881889180
N           -0.96398241943809       -1.29026369952533       -0.03370492525883
C           -1.48916754047735       -2.63851646097467       -0.04809977592196
H            3.85604402388568        1.15557290621980        0.95499167410687
H            4.47818978996788        1.03123243677116       -0.44736612311503
H            2.82446738498499        2.11066633619445       -0.10582922999139
H            3.55507683044342       -1.64943009132187        0.03258043044680
H           -1.75175627944487        3.06162734608125       -0.01916653672845
H           -2.90909204922775        2.06565771205540       -0.94866835282669
H           -2.96206097352697        2.04554617268811        0.81845711672358
H           -1.19301360903859       -3.18445525431848        0.85128489007226
H           -1.15224606295445       -3.18252495346799       -0.93461858041998
H           -2.57670321226760       -2.56237329105273       -0.07325636530964
H            1.32341640702758       -2.91159109050669       -0.01036606081280
25
 energy: 25.822803481230 xtb: 6.6.1 (8d0f1dd)
C            3.44099450968693        1.14223810632374        0.00452769151524
N            2.34516203460662        0.16398953928901       -0.07036801723272
C            2.58196146019804       -1.21016028867097       -0.00445396221127
N            1.37970759279465       -1.88729519694026       -0.00768154369904
C            0.37556414648156       -1.00091029823495       -0.02153779836523
C            0.91159369064930        0.29522372732975       -0.03340005970726
C            0.03531203179452        1.40764566120551       -0.00299229734048
O            0.35307621723479        2.60598666544939        0.02855662747695
N           -1.35968033175518        1.03680815599971       -0.02762440334746
C           -2.34878758395674        2.10762431014869       -0.04470432976057
C           -1.88357145131522       -0.21242033705502       -0.04781585034044
O           -3.08137836667742       -0.43388549765801       -0.07218756602212
N           -0.97214722236014       -1.27981114577568       -0.03249268574751
C           -1.49215897010046       -2.63181575465892       -0.03920174834059
H            3.91537053085873        1.10102904638790        0.94859431952240
H            4.64944465916531        1.00975060720264       -0.38646790206748
H            2.93488671581040        2.11147354196826       -0.10752629467957
H            3.54400057423313       -1.64780111308840        0.02407146571570
H           -1.81321468000224        3.05365949542899       -0.01762711205564
H           -2.95883492894524        2.04333563693908       -0.94771160207579
H           -3.01310727192813        2.02155705913288        0.81675545587351
H           -1.20504120401343       -3.17208822358881        0.86676487807131
H           -1.15176340888177       -3.18451400335722       -0.91913264167713
H           -2.58103154351907       -2.56044935644317       -0.07253685924546
H            1.30585746787736       -2.89014173516209       -0.00677386811203
25
 energy: 30.472056647712 xtb: 6.6.1 (8d0f1dd)
C            3.47773380639437        1.12930119389635        0.00233418938691
N            2.35388779073801        0.16977455296840       -0.08961422755292
C            2.57530544118601       -1.20174876172388       -0.01625147634668
N            1.37740229583688       -1.87532235259294       -0.01010993020004
C            0.37261269787444       -0.98816947792573       -0.02623722211005
C            0.91214225260677        0.30905279689598       -0.04434416700923
C            0.02519423573618        1.41830501424417       -0.00518640840583
O            0.32503580285605        2.61454592365899        0.03416061560548
N           -1.37267439489760        1.03881664287985       -0.02894959035649
C           -2.37124656758049        2.10132111701170       -0.04613339330924
C           -1.89211677100302       -0.21434578361893       -0.04817201715728
O           -3.08706145545407       -0.44190644216814       -0.07334284301907
N           -0.97318721061550       -1.27434837928904       -0.03177167969981
C           -1.49113876011836       -2.62842750232429       -0.03292974876574
H            3.93645304973467        1.05648072427381        0.95028465702937
H            4.71785944368462        1.00207569154200       -0.37097599558130
H            2.99193480625626        2.11004456969247       -0.09591925817546
H            3.53748471544680       -1.64282864328833        0.01899909906993
H           -1.84753549159573        3.05341745032921       -0.01849236828068
H           -2.98179147946199        2.02997493619544       -0.94870410631198
H           -3.03637678209509        2.00770791025386        0.81439123772335
H           -1.21053727165100       -3.16298202766732        0.87810124712975
H           -1.14852409050785       -3.18568047888643       -0.90841144405387
H           -2.58041866209440       -2.55713723398992       -0.07160992065051
H            1.30177726666038       -2.87889283819521       -0.00408135281127
25
 energy: 30.835130433355 xtb: 6.6.1 (8d0f1dd)
C            3.48121137152069        1.12660969154732        0.00452724808567
N            2.35558556748987        0.16910809653257       -0.09617143924511
C            2.57229532316079       -1.19782041140265       -0.02070300167210
N            1.37863072848129       -1.87216391110926       -0.00977776141577
C            0.37132778959314       -0.98512315902233       -0.02748272599700
C            0.91194969527864        0.31161079592726       -0.04779096498757
C            0.02464119937774        1.42235025753840       -0.00734549320458
O            0.31854490423572        2.61619239629898        0.03620888185994
N           -1.37297490339655        1.03918913818263       -0.03047171562396
C           -2.37343307756130        2.10012416753958       -0.04744855563685
C           -1.89336656491921       -0.21513681213962       -0.04828716853460
O           -3.08689515285786       -0.44239641057895       -0.07343047235749
N           -0.97245288318742       -1.27356310231565       -0.03114668551911
C           -1.49022782040717       -2.62816210247328       -0.03077053352632
H            3.93975455904967        1.03528411904728        0.94934844576899
H            4.72426967105683        1.00704943905773       -0.37543666815963
H            2.99909171837999        2.10849268835085       -0.08392801277226
H            3.53537675611435       -1.63929449705180        0.01994747643761
H           -1.85317834028962        3.05371949876219       -0.01976588019475
H           -2.98405722709735        2.02716895772705       -0.94986673461383
H           -3.03829560479898        2.00497980603524        0.81317499730793
H           -1.21187813326310       -3.16048589613758        0.88186079795111
H           -1.14642415866699       -3.18640953765459       -0.90459383719687
H           -2.57951543592864       -2.55637114744426       -0.07143798336242
H            1.30223468657180       -2.87592346304503       -0.00217831724366
25
 energy: 30.852459705086 xtb: 6.6.1 (8d0f1dd)
C            3.47873519513574        1.12681234744848        0.00762730347447
N            2.35666401766541        0.16826043309485       -0.10409375662658
C            2.57000156374608       -1.19456453029672       -0.02450900603499
N            1.37995072010125       -1.87023345313164       -0.00798219135646
C            0.37025642553374       -0.98349442115685       -0.02790625531499
C            0.91132719713173        0.31292415709000       -0.05119952048576
C            0.02621229992031        1.42526186814010       -0.00974248839832
O            0.31481858229519        2.61788694291233        0.03819990145073
N           -1.37148344228551        1.03856535361569       -0.03231740958889
C           -2.37232191101172        2.09940615327765       -0.04910026322112
C           -1.89366738852492       -0.21597863844463       -0.04826086816814
O           -3.08636377529002       -0.44207060160475       -0.07315155593557
N           -0.97181526380989       -1.27379868374973       -0.02993443527982
C           -1.48955919705217       -2.62868556929241       -0.02912298562092
H            3.94323442759326        1.01302414980166        0.94625002051993
H            4.72262425915662        1.01698499073960       -0.38426774564868
H            2.99704475845912        2.10844132483826       -0.06811611133652
H            3.53374179721166       -1.63623008033614        0.02418425806293
H           -1.85338337626417        3.05345797804014       -0.02145925841414
H           -2.98306567454113        2.02629797984137       -0.95139429104202
H           -3.03685992616385        2.00439991538477        0.81179838753566
H           -1.21262342540865       -3.15978189412589        0.88432623815731
H           -1.14465607662549       -3.18727751139582       -0.90189725772478
H           -2.57879388830224       -2.55660356878136       -0.07119923567520
H            1.30219676926599       -2.87397603973688        0.00030242281922
25
 energy: 30.802807301747 xtb: 6.6.1 (8d0f1dd)
C            3.47761191036639        1.12659341814850        0.00937112592307
N            2.35731172340617        0.16758134398143       -0.10821502305556
C            2.56842402869794       -1.19243152294124       -0.02674524818524
N            1.38084075503976       -1.86895995702686       -0.00713157848611
C            0.36956489173638       -0.98238350354023       -0.02826494417772
C            0.91101031101580        0.31376311303928       -0.05308455983201
C            0.02703309825955        1.42719451384433       -0.01120367643827
O            0.31228924210177        2.61884971537715        0.03956933516883
N           -1.37051264302425        1.03828681390932       -0.03341988905133
C           -2.37168878230304        2.09895243703129       -0.05006646488639
C           -1.89383694162942       -0.21650802562071       -0.04828442413656
O           -3.08589985290214       -0.44182794469270       -0.07305883058248
N           -0.97133517446468       -1.27385330067380       -0.02934711904933
C           -1.48908547376667       -2.62894749908055       -0.02812196492515
H            3.94502184815233        0.99989556881471        0.94481476074702
H            4.72119398986571        1.02231979414057       -0.38955269699228
H            2.99641147258726        2.10810769517634       -0.05916810562001
H            3.53269569360890       -1.63416742607131        0.02624301684749
H           -1.85383161793873        3.05338777570558       -0.02243624592366
H           -2.98249543596180        2.02563079870523       -0.95228570013148
H           -3.03601793724998        2.00387145920340        0.81098897138179
H           -1.21316471291745       -3.15912167989858        0.88594032865516
H           -1.14345003252368       -3.18782614313609       -0.90013307558353
H           -2.57829201182200       -2.55665404671086       -0.07118758002600
H            1.30241631960218       -2.87272479551210        0.00181348450705
25
 energy: 31.071171351332 xtb: 6.6.1 (8d0f1dd)
C            3.47594145049432        1.12817364856427        0.00923102447597
N            2.35694534978127        0.16847247936516       -0.10911951916962
C            2.56981080309578       -1.19394418392299       -0.02595852292410
N            1.38016048018796       -1.86996812535421       -0.00640948113658
C            0.37005164823572       -0.98347022750325       -0.02760328207567
C            0.91078344103942        0.31315290801737       -0.05288852067871
C            0.02748189558407        1.42554845745732       -0.01055493581544
O            0.31459749989635        2.61850106500051        0.03848937059641
N           -1.37100742382741        1.03796023988533       -0.03306586714580
C           -2.37138389345059        2.09935120043285       -0.04987627785727
C           -1.89361101827215       -0.21618576291599       -0.04811330548528
O           -3.08642028468265       -0.44199560561097       -0.07281433631444
N           -0.97187994552891       -1.27424894094101       -0.02897755416912
C           -1.48952359972578       -2.62911689002871       -0.02859784637477
H            3.94559171390614        1.00374552403855        0.94335435955840
H            4.72220851379106        1.02320428114155       -0.38826256775090
H            2.99314050423401        2.10930828499361       -0.05981843416703
H            3.53339039786709       -1.63565741812753        0.02754537970386
H           -1.85184852907606        3.05314800859855       -0.02230781767091
H           -2.98218655855592        2.02664929628079       -0.95213792721618
H           -3.03583962261280        2.00503140946431        0.81116624078063
H           -1.21258190747213       -3.16041807303815        0.88473426870524
H           -1.14442066567311       -3.18755795389019       -0.90143538210742
H           -2.57871932241101       -2.55706078339776       -0.07076500036204
H            1.30153374111161       -2.87359423633735        0.00121983074807
25
 energy: 31.643166902419 xtb: 6.6.1 (8d0f1dd)
C            3.47294793683582        1.13002964017175        0.01032085331483
N            2.35653729864013        0.16941849320260       -0.11365586843330
C            2.57080137580558       -1.19453397421048       -0.02682983837572
N            1.37988735577514       -1.87041854681435       -0.00481993305050
C            0.37030280460557       -0.98433937403767       -0.02694927506193
C            0.91012356712346        0.31276285676237       -0.05395263636340
C            0.02818273791045        1.42447718912870       -0.01066441054426
O            0.31625398121058        2.61826825207906        0.03714238177042
N           -1.37158687727905        1.03764268564682       -0.03320150048935
C           -2.37111993353467        2.09976279789742       -0.05018058833113
C           -1.89350457081417       -0.21595086771939       -0.04781757026281
O           -3.08684870158570       -0.44227021532124       -0.07236146322717
N           -0.97232605702924       -1.27472858720716       -0.02799076278954
C           -1.48981958560063       -2.62939998594947       -0.02839897398741
H            3.94698161382507        0.99949986924129        0.94089789854123
H            4.72551987341015        1.02779452083574       -0.38923904595549
H            2.98892431042680        2.11089671969262       -0.05499410177941
H            3.53376895912084       -1.63606024096318        0.03051901059950
H           -1.85003934856985        3.05295691982407       -0.02281304379952
H           -2.98191640794311        2.02749724377711       -0.95244055169690
H           -3.03554292555927        2.00627374075493        0.81096344131519
H           -1.21199796102713       -3.16163793640102        0.88430918011965
H           -1.14514840480277       -3.18743909990891       -0.90194704060534
H           -2.57900238902640       -2.55753493172697       -0.06981017447532
H            1.30083601601870       -2.87393856658259        0.00094790971501
25
 energy: 32.260431407737 xtb: 6.6.1 (8d0f1dd)
C            3.47059617162178        1.13084551540632        0.01153700197562
N            2.35591260567814        0.16991840535290       -0.11714388474180
C            2.57106996886756       -1.19430775594066       -0.02815377683943
N            1.37997382184410       -1.87039048962552       -0.00351438656477
C            0.37027314073042       -0.98477567784096       -0.02656742090202
C            0.90950249397619        0.31249651634238       -0.05475983544276
C            0.02824460849807        1.42419950315096       -0.01115159896058
O            0.31675524353371        2.61800588620907        0.03621762280957
N           -1.37210811637672        1.03767919741839       -0.03340433454493
C           -2.37123344915728        2.10004559361786       -0.05046527735594
C           -1.89353271222622       -0.21582275365878       -0.04767369471630
O           -3.08695458714642       -0.44252537209328       -0.07217863504945
N           -0.97248465933339       -1.27492575265865       -0.02726344515862
C           -1.48992961533943       -2.62951392647903       -0.02797456811362
H            3.94803154179348        0.99385731891271        0.93883049057813
H            4.73010623092261        1.03137527210129       -0.39048843906395
H            2.98663524287424        2.11175363928391       -0.05044064124436
H            3.53384998199835       -1.63545729786228        0.03264262344240
H           -1.84957127258275        3.05298963594675       -0.02330663212008
H           -2.98200594396330        2.02781360141885       -0.95270439944507
H           -3.03555155600205        2.00690393214239        0.81076752614074
H           -1.21173459774656       -3.16205167069148        0.88449538468127
H           -1.14544741222083       -3.18738899046929       -0.90179782324671
H           -2.57912248801614       -2.55775924798344       -0.06907822126582
H            1.30094002570875       -2.87393647982834        0.00061026129579
25
 energy: 33.299652823317 xtb: 6.6.1 (8d0f1dd)
C            3.46750686196158        1.13136691543288        0.01292173494465
N            2.35461693165655        0.17042703379334       -0.11992997289720
C            2.57102756337125       -1.19367342552585       -0.02988025836835
N            1.38012202855312       -1.87025143899335       -0.00201957526286
C            0.37002544337727       -0.98525263259663       -0.02615207193298
C            0.90867841175520        0.31204398100664       -0.05519531099783
C            0.02765600296236        1.42405985952573       -0.01186944894462
O            0.31692585088891        2.61750189181428        0.03520958547932
N           -1.37279078935359        1.03793065145796       -0.03349649087555
C           -2.37160137486072        2.10035357076485       -0.05067982915347
C           -1.89369697580248       -0.21570857883876       -0.04757732309586
O           -3.08701055646941       -0.44280794099934       -0.07218994390032
N           -0.97265185365514       -1.27501898159349       -0.02659144323132
C           -1.49009166691089       -2.62958202114250       -0.02745077688990
H            3.94930494622850        0.98721728194702        0.93598472529347
H            4.73867712014468        1.03482264588105       -0.39176199899391
H            2.98448325176901        2.11255509649114       -0.04593549529557
H            3.53382064871500       -1.63408847500825        0.03478489822707
H           -1.84966490395706        3.05315139814560       -0.02377956237824
H           -2.98233804259891        2.02800460333318       -0.95289931546240
H           -3.03578736637595        2.00742378694047        0.81063153885501
H           -1.21160505481041       -3.16218119978789        0.88488689079197
H           -1.14572232735709       -3.18734431248837       -0.90142055790578
H           -2.57931165178966       -2.55799836706967       -0.06835579287092
H            1.30164217049418       -2.87392274031795       -0.00020030898708
25
 energy: 35.438230221782 xtb: 6.6.1 (8d0f1dd)
C            3.46212130826427        1.13193712009884        0.01443727625975
N            2.35201652896452        0.17117188585077       -0.12127993306347
C            2.57050944435416       -1.19260237643918       -0.03212411349730
N            1.38006635289840       -1.87015907906556       -0.00008160209441
C            0.36931876248849       -0.98601186967503       -0.02563625816290
C            0.90733462454901        0.31116997704247       -0.05512776572174
C            0.02602557943241        1.42379705667605       -0.01289150702746
O            0.31683422104568        2.61652526417932        0.03393225146604
N           -1.37375833726669        1.03832720864852       -0.03330581821813
C           -2.37223540346425        2.10072248919771       -0.05072243414018
C           -1.89418921886366       -0.21567528239752       -0.04748681634402
O           -3.08725758030862       -0.44308882365235       -0.07237923814705
N           -0.97311937050610       -1.27511978334869       -0.02597864890428
C           -1.49055014667466       -2.62975410250490       -0.02687829485754
H            3.95159619268656        0.97932058842530        0.93061434781908
H            4.75690346324506        1.03893728888424       -0.39292118457385
H            2.98111380463262        2.11369084135125       -0.04132402517908
H            3.53353923455889       -1.63164138649761        0.03767089076047
H           -1.85016776333830        3.05342001384976       -0.02415050468633
H           -2.98292262545613        2.02819901080669       -0.95293773423634
H           -3.03628056037311        2.00800726838544        0.81065517037404
H           -1.21168255395949       -3.16219865640052        0.88537340893832
H           -1.14620164787831       -3.18737485210437       -0.90092344452343
H           -2.57980491244352       -2.55849761879826       -0.06760512654399
H            1.30300527134903       -2.87407358034028       -0.00189499954888
25
 energy: 65.750382793597 xtb: 6.6.1 (8d0f1dd)
C            3.34171768881799        1.14417255049155        0.04813052841919
N            2.29356390009277        0.18713182979825       -0.14711971706260
C            2.55888552934706       -1.16901339843058       -0.08085139917708
N            1.37893027753327       -1.86841285181007        0.04263782370760
C            0.35366473373436       -1.00305080410934       -0.01417542143553
C            0.87781931643693        0.29122988948236       -0.05197329539194
C           -0.01056028722600        1.41802696571276       -0.03501704729971
O            0.31546502180479        2.59447002055536        0.00621495560650
N           -1.39462476542448        1.04749177384937       -0.02864380538137
C           -2.38591692897652        2.10895198187353       -0.05125302825369
C           -1.90479156236959       -0.21480288224495       -0.04565587736556
O           -3.09225401702386       -0.44890840716516       -0.07693268057110
N           -0.98319710839810       -1.27717072563382       -0.01305138747420
C           -1.50057574130918       -2.63339550359355       -0.01477908406764
H            4.00068410975171        0.80995579480899        0.81252312645731
H            5.15962445096540        1.12620325335604       -0.41886276475486
H            2.90674616088552        2.13836170255132        0.05587484253846
H            3.52738151709603       -1.57752866000965        0.10003748431144
H           -1.86135467181054        3.05954671119037       -0.03179946395831
H           -2.99537772700045        2.03241295692427       -0.95345434680872
H           -3.04688595257693        2.02055194004957        0.81148084597676
H           -1.21339157245079       -3.16222066797548        0.89567092334866
H           -1.15655636695519       -3.18784971578852       -0.89038641119715
H           -2.59059090247985       -2.56931079412955       -0.05173408626579
H            1.33380956547192       -2.87781435758094       -0.03984681775333
25
 energy: 68.769017950850 xtb: 6.6.1 (8d0f1dd)
C            3.18486494920286        1.14294810233744        0.09811417468957
N            2.21915103067857        0.18771479013242       -0.12244491834597
C            2.54601236235081       -1.14734329529289       -0.10831516872576
N            1.38012126882637       -1.86974177465571        0.08779037670090
C            0.34036424104663       -1.02484314552108       -0.00372406318648
C            0.85447833007231        0.25800929935810       -0.02495309906527
C           -0.04836004406100        1.41495267084916       -0.04679072149340
O            0.32759786107708        2.56255622296509       -0.00645163457559
N           -1.40684085234308        1.06551103352348       -0.02069081666451
C           -2.39265240228697        2.11939570333242       -0.04602310620823
C           -1.90569264505055       -0.20924664249164       -0.04705186855544
O           -3.08426966848136       -0.45052962397544       -0.08276713647569
N           -0.98564631441516       -1.27592204636463       -0.00819692725765
C           -1.50505164356263       -2.63338029164829       -0.01295469106803
H            4.01647299305463        0.75827692113523        0.67271033348537
H            5.53541196240349        1.14482071554547       -0.41696184335701
H            2.83862132628744        2.14660855826110        0.07667244937843
H            3.51747676053109       -1.52977613854696        0.12363903203367
H           -1.86815983602749        3.06766705488748       -0.03021599240114
H           -2.99840430716271        2.03664169121549       -0.94921271221892
H           -3.04992327323619        2.02577830249860        0.81662440467561
H           -1.21163997105233       -3.15969924853493        0.89515512311333
H           -1.16165907429833       -3.18348281898039       -0.89052791502443
H           -2.59564803863181       -2.57395444694761       -0.04720329109207
H            1.36558965301457       -2.88393299090979       -0.07918609221397
25