      -----------------------------------------------------------      
     |                   =====================                   |     
     |                           x T B                           |     
     |                   =====================                   |     
     |                         S. Grimme                         |     
     |          Mulliken Center for Theoretical Chemistry        |     
     |                    University of Bonn                     |     
      -----------------------------------------------------------      

   * xtb version 6.6.1 (8d0f1dd) compiled by 'conda@1efc2f54142f' on 2023-08-01

   xtb is free software: you can redistribute it and/or modify it under
   the terms of the GNU Lesser General Public License as published by
   the Free Software Foundation, either version 3 of the License, or
   (at your option) any later version.
   
   xtb is distributed in the hope that it will be useful,
   but WITHOUT ANY WARRANTY; without even the implied warranty of
   MERCHANTABILITY or FITNESS FOR A PARTICULAR PURPOSE.  See the
   GNU Lesser General Public License for more details.
   
   Cite this work as:
   * C. Bannwarth, E. Caldeweyher, S. Ehlert, A. Hansen, P. Pracht,
     J. Seibert, S. Spicher, S. Grimme, WIREs Comput. Mol. Sci., 2020, 11,
     e01493. DOI: 10.1002/wcms.1493
   
   for GFN2-xTB:
   * C. Bannwarth, S. Ehlert and S. Grimme., J. Chem. Theory Comput., 2019,
     15, 1652-1671. DOI: 10.1021/acs.jctc.8b01176
   for GFN1-xTB:
   * S. Grimme, C. Bannwarth, P. Shushkov, J. Chem. Theory Comput., 2017,
     13, 1989-2009. DOI: 10.1021/acs.jctc.7b00118
   for GFN0-xTB:
   * P. Pracht, E. Caldeweyher, S. Ehlert, S. Grimme, ChemRxiv, 2019, preprint.
     DOI: 10.26434/chemrxiv.8326202.v1
   for GFN-FF:
   * S. Spicher and S. Grimme, Angew. Chem. Int. Ed., 2020, 59, 15665-15673.
     DOI: 10.1002/anie.202004239
   
   for ALPB and GBSA implicit solvation:
   * S. Ehlert, M. Stahn, S. Spicher, S. Grimme, J. Chem. Theory Comput.,
     2021, 17, 4250-4261. DOI: 10.1021/acs.jctc.1c00471
   
   for DFT-D4:
   * E. Caldeweyher, C. Bannwarth and S. Grimme, J. Chem. Phys., 2017,
     147, 034112. DOI: 10.1063/1.4993215
   * E. Caldeweyher, S. Ehlert, A. Hansen, H. Neugebauer, S. Spicher,
     C. Bannwarth and S. Grimme, J. Chem. Phys., 2019, 150, 154122.
     DOI: 10.1063/1.5090222
   * E. Caldeweyher, J.-M. Mewes, S. Ehlert and S. Grimme, Phys. Chem. Chem. Phys.
     2020, 22, 8499-8512. DOI: 10.1039/D0CP00502A
   
   for sTDA-xTB:
   * S. Grimme and C. Bannwarth, J. Chem. Phys., 2016, 145, 054103.
     DOI: 10.1063/1.4959605
   
   in the mass-spec context:
   * V. Asgeirsson, C. Bauer and S. Grimme, Chem. Sci., 2017, 8, 4879.
     DOI: 10.1039/c7sc00601b
   * J. Koopman and S. Grimme, ACS Omega 2019, 4, 12, 15120-15133.
     DOI: 10.1021/acsomega.9b02011
   
   for metadynamics refer to:
   * S. Grimme, J. Chem. Theory Comput., 2019, 155, 2847-2862
     DOI: 10.1021/acs.jctc.9b00143
   
   for SPH calculations refer to:
   * S. Spicher and S. Grimme, J. Chem. Theory Comput., 2021, 17, 1701-1714
     DOI: 10.1021/acs.jctc.0c01306
   
   with help from (in alphabetical order)
   P. Atkinson, C. Bannwarth, F. Bohle, G. Brandenburg, E. Caldeweyher
   M. Checinski, S. Dohm, S. Ehlert, S. Ehrlich, I. Gerasimov, C. Hölzer
   A. Katbashev, J. Koopman, C. Lavigne, S. Lehtola, F. März, M. Müller,
   F. Musil, H. Neugebauer, J. Pisarek, C. Plett, P. Pracht, F. Pultar,
   J. Seibert, P. Shushkov, S. Spicher, M. Stahn, M. Steiner, T. Strunk,
   J. Stückrath, T. Rose, and J. Unsleber
   
 * started run on 2024/04/06 at 11:15:39.652     

           -------------------------------------------------
          |                Calculation Setup                |
           -------------------------------------------------

          program call               : xtb xtbopt.xyz --opt crude --input .xc2 --gfn2
          hostname                   : n-62-30-23
          coordinate file            : xtbopt.xyz
          omp threads                :                     1

   ID    Z sym.   atoms
    1    7 N      1, 17
    2    6 C      2-6, 8, 9, 11-16, 18-23, 25, 26, 28-33
    3    8 O      7, 10, 24, 27
    4    1 H      34-72
########################################################################
[WARNING] Please study the warnings concerning your input carefully
-1- readin_getIntValue: could not parse ''
########################################################################

           -------------------------------------------------
          |                 G F N 2 - x T B                 |
           -------------------------------------------------

        Reference                      10.1021/acs.jctc.8b01176
      * Hamiltonian:
        H0-scaling (s, p, d)           1.850000    2.230000    2.230000
        zeta-weighting                 0.500000
      * Dispersion:
        s8                             2.700000
        a1                             0.520000
        a2                             5.000000
        s9                             5.000000
      * Repulsion:
        kExp                           1.500000    1.000000
        rExp                           1.000000
      * Coulomb:
        alpha                          2.000000
        third order                    shell-resolved
        anisotropic                    true
        a3                             3.000000
        a5                             4.000000
        cn-shift                       1.200000
        cn-exp                         4.000000
        max-rad                        5.000000

q/qsh data taken from xtbrestart
CAMM data taken from xtbrestart

          ...................................................
          :                      SETUP                      :
          :.................................................:
          :  # basis functions                 171          :
          :  # atomic orbitals                 171          :
          :  # shells                          105          :
          :  # electrons                       180          :
          :  max. iterations                   250          :
          :  Hamiltonian                  GFN2-xTB          :
          :  restarted?                       true          :
          :  GBSA solvation                  false          :
          :  PC potential                    false          :
          :  electronic temp.         5000.0000000     K    :
          :  accuracy                    1.0000000          :
          :  -> integral cutoff          0.2500000E+02      :
          :  -> integral neglect         0.1000000E-07      :
          :  -> SCF convergence          0.1000000E-05 Eh   :
          :  -> wf. convergence          0.1000000E-03 e    :
          :  Broyden damping             0.4000000          :
          ...................................................

 iter      E             dE          RMSdq      gap      omega  full diag
   1   -100.8046269 -0.100805E+03  0.108E-05    3.24       0.0  T
   2   -100.8046269 -0.262901E-11  0.734E-06    3.24    1605.3  T
   3   -100.8046269 -0.238742E-11  0.398E-06    3.24    2963.6  T

   *** convergence criteria satisfied after 3 iterations ***

         #    Occupation            Energy/Eh            Energy/eV
      -------------------------------------------------------------
         1        2.0000           -0.8710068             -23.7013
       ...           ...                  ...                  ...
        84        1.9995           -0.5005372             -13.6203
        85        1.9991           -0.4917848             -13.3821
        86        1.9981           -0.4791213             -13.0376
        87        1.9950           -0.4638124             -12.6210
        88        1.9913           -0.4551024             -12.3840
        89        1.9868           -0.4484926             -12.2041
        90        1.9475           -0.4262657             -11.5993 (HOMO)
        91        0.0397           -0.3073189              -8.3626 (LUMO)
        92        0.0299           -0.3027469              -8.2382
        93        0.0081           -0.2818416              -7.6693
        94        0.0065           -0.2785148              -7.5788
        95        0.0001           -0.2097936              -5.7088
       ...           ...                  ...                  ...
       171                          1.0826753              29.4611
      -------------------------------------------------------------
                  HL-Gap            0.1189468 Eh            3.2367 eV
             Fermi-level           -0.3690588 Eh          -10.0426 eV

 SCC (total)                   0 d,  0 h,  0 min,  0.119 sec
 SCC setup                      ...        0 min,  0.001 sec (  0.974%)
 Dispersion                     ...        0 min,  0.002 sec (  1.443%)
 classical contributions        ...        0 min,  0.001 sec (  0.428%)
 integral evaluation            ...        0 min,  0.018 sec ( 15.271%)
 iterations                     ...        0 min,  0.027 sec ( 23.010%)
 molecular gradient             ...        0 min,  0.070 sec ( 58.335%)
 printout                       ...        0 min,  0.001 sec (  0.527%)

         :::::::::::::::::::::::::::::::::::::::::::::::::::::
         ::                     SUMMARY                     ::
         :::::::::::::::::::::::::::::::::::::::::::::::::::::
         :: total energy             -99.253943404497 Eh    ::
         :: gradient norm              1.333316536334 Eh/a0 ::
         :: HOMO-LUMO gap              3.236708079304 eV    ::
         ::.................................................::
         :: SCC energy              -100.804626877684 Eh    ::
         :: -> isotropic ES            0.137019076881 Eh    ::
         :: -> anisotropic ES          0.008486124222 Eh    ::
         :: -> anisotropic XC          0.036934574037 Eh    ::
         :: -> dispersion             -0.076236327829 Eh    ::
         :: repulsion energy           1.549835689801 Eh    ::
         :: add. restraining           0.000000000000 Eh    ::
         :: total charge               0.999999999685 e     ::
         :::::::::::::::::::::::::::::::::::::::::::::::::::::

      ----------------------------------------------------------- 
     |                   =====================                   |
     |                        A N C O P T                        |
     |                   =====================                   |
     |               Approximate Normal Coordinate               |
     |                Rational Function Optimizer                |
      ----------------------------------------------------------- 

          ...................................................
          :                      SETUP                      :
          :.................................................:
          :   optimization level             crude          :
          :   max. optcycles                   200          :
          :   ANC micro-cycles                  20          :
          :   degrees of freedom               210          :
          :.................................................:
          :   RF solver                   davidson          :
          :   write xtbopt.log                true          :
          :   linear?                        false          :
          :   energy convergence         0.5000000E-03 Eh   :
          :   grad. convergence          0.1000000E-01 Eh/α :
          :   maxmium RF displ.          1.0000000          :
          :   Hlow (freq-cutoff)         0.1000000E-01      :
          :   Hmax (freq-cutoff)         5.0000000          :
          :   S6 in model hess.         20.0000000          :
          ...................................................

generating ANC from model Hessian ...
Using Lindh-Hessian (1995)
 Shifting diagonal of input Hessian by    9.9349129782346154E-003
 Lowest  eigenvalues of input Hessian
    0.000000    0.000000    0.000000    0.000000    0.000000    0.000000
    0.010000    0.010045    0.010105    0.010230    0.010289    0.010412
    0.010856    0.011001    0.011758    0.012317    0.013029    0.013061
 Highest eigenvalues
    2.004372    2.044217    2.047633    2.176768    2.180683    2.697165


........................................................................
.............................. CYCLE    1 ..............................
........................................................................

 iter      E             dE          RMSdq      gap      omega  full diag
   1   -100.8046269 -0.100805E+03  0.148E-06    3.24       0.0  T
   2   -100.8046269  0.710543E-12  0.981E-07    3.24   12013.3  T
   3   -100.8046269 -0.483169E-12  0.610E-07    3.24   19310.2  T
     SCC iter.                  ...        0 min,  0.026 sec
     gradient                   ...        0 min,  0.069 sec
 * total energy  :   -99.2539434 Eh     change       -0.8668621E-12 Eh
   gradient norm :     1.3333165 Eh/α   predicted     0.0000000E+00 (-100.00%)
   displ. norm   :     0.4563488 α      lambda       -0.5794490E+00
   maximum displ.:     0.3971045 α      in ANC's #210, #147, #156, ...

........................................................................
.............................. CYCLE    2 ..............................
........................................................................

 iter      E             dE          RMSdq      gap      omega  full diag
   1   -100.7772583 -0.100777E+03  0.305E-01    3.27       0.0  T
   2   -100.7778049 -0.546605E-03  0.163E-01    3.27       1.0  T
   3   -100.7778360 -0.310734E-04  0.437E-02    3.26       1.0  T
   4   -100.7778381 -0.211182E-05  0.100E-02    3.26       1.2  T
   5   -100.7778387 -0.642751E-06  0.554E-03    3.26       2.1  T
   6   -100.7778397 -0.934130E-06  0.154E-03    3.26       7.7  T
   7   -100.7778397 -0.900283E-07  0.590E-04    3.26      20.0  T
   8   -100.7778398 -0.445984E-08  0.193E-04    3.26      61.0  T
     SCC iter.                  ...        0 min,  0.065 sec
     gradient                   ...        0 min,  0.069 sec
 * total energy  :   -99.4384346 Eh     change       -0.1844912E+00 Eh
   gradient norm :     0.0400039 Eh/α   predicted    -0.3500909E+00 (  89.76%)
   displ. norm   :     0.2110549 α      lambda       -0.7235343E-02
   maximum displ.:     0.0552132 α      in ANC's #27, #51, #37, ...

........................................................................
.............................. CYCLE    3 ..............................
........................................................................

 iter      E             dE          RMSdq      gap      omega  full diag
   1   -100.7756434 -0.100776E+03  0.850E-02    3.28       0.0  T
   2   -100.7756539 -0.105498E-04  0.489E-02    3.27       1.0  T
   3   -100.7756453  0.864374E-05  0.114E-02    3.27       1.0  T
   4   -100.7756569 -0.116542E-04  0.331E-03    3.27       3.6  T
   5   -100.7756573 -0.371842E-06  0.158E-03    3.27       7.5  T
   6   -100.7756573 -0.232687E-07  0.351E-04    3.27      33.5  T
   7   -100.7756573 -0.400978E-08  0.122E-04    3.27      96.5  T
     SCC iter.                  ...        0 min,  0.057 sec
     gradient                   ...        0 min,  0.069 sec
 * total energy  :   -99.4409955 Eh     change       -0.2560905E-02 Eh
   gradient norm :     0.0124972 Eh/α   predicted    -0.2307803E-02 (  -9.88%)
   displ. norm   :     0.1066364 α      lambda       -0.1398720E-02
   maximum displ.:     0.0349217 α      in ANC's #27, #37, #9, ...

........................................................................
.............................. CYCLE    4 ..............................
........................................................................

 iter      E             dE          RMSdq      gap      omega  full diag
   1   -100.7739839 -0.100774E+03  0.261E-02    3.27       0.0  T
   2   -100.7739871 -0.320106E-05  0.154E-02    3.27       1.0  T
   3   -100.7739863  0.740018E-06  0.488E-03    3.27       2.4  T
   4   -100.7739873 -0.952864E-06  0.183E-03    3.27       6.4  T
   5   -100.7739876 -0.276611E-06  0.612E-04    3.27      19.3  T
   6   -100.7739876 -0.519054E-08  0.250E-04    3.27      47.2  T
     SCC iter.                  ...        0 min,  0.050 sec
     gradient                   ...        0 min,  0.069 sec
 * total energy  :   -99.4413225 Eh     change       -0.3270331E-03 Eh
   gradient norm :     0.0044829 Eh/α   predicted    -0.2777400E-03 ( -15.07%)
   displ. norm   :     0.0611424 α      lambda       -0.3133936E-03
   maximum displ.:     0.0253947 α      in ANC's #2, #9, #6, ...

   *** GEOMETRY OPTIMIZATION CONVERGED AFTER 4 ITERATIONS ***

------------------------------------------------------------------------
 total energy gain   :        -0.1873791 Eh     -117.5822 kcal/mol
 total RMSD          :         0.0673259 a0        0.0356 Å
 total power (kW/mol):      -122.9909659 (step) -760.2633 (real)
------------------------------------------------------------------------

 ANCopt (total)                0 d,  0 h,  0 min,  0.647 sec
 optimizer setup                ...        0 min,  0.000 sec (  0.035%)
 model hessian                  ...        0 min,  0.067 sec ( 10.356%)
 ANC generation                 ...        0 min,  0.006 sec (  0.972%)
 coordinate transformation      ...        0 min,  0.000 sec (  0.038%)
 single point calculation       ...        0 min,  0.566 sec ( 87.412%)
 optimization log               ...        0 min,  0.003 sec (  0.452%)
 hessian update                 ...        0 min,  0.000 sec (  0.037%)
 rational function              ...        0 min,  0.002 sec (  0.319%)

================
 final structure:
================
72
 xtb: 6.6.1 (8d0f1dd)
N           -1.60653165446521        2.55599259309223        1.49820506713444
C           -1.56229367077706        1.19583825336199        0.87864494524805
C           -2.76759819206560        1.11671478686470       -0.09099476065768
C           -3.70131885617349       -0.06272665411984        0.11774873307644
C           -4.77744731494338       -0.18498639676432       -0.77280743858457
C           -5.67929627732861       -1.22852454568350       -0.68398687919828
O           -6.74142079502576       -1.41661146581570       -1.50081516482685
C           -6.95917596509523       -0.51744329060566       -2.55962971945115
C           -5.51766259499953       -2.20578162109672        0.33179168531404
O           -6.43423220800366       -3.19690038075361        0.34065684318489
C           -6.32181258577501       -4.21311192488669        1.30888150268551
C           -4.46182056691715       -2.07339472876090        1.21499638403864
C           -3.56674099296074       -1.01331899017312        1.11118369392774
C           -2.10170925124918        1.01842847609008       -1.48654128136444
C           -0.77740663404646        0.31240503880726       -1.22881317914073
C           -0.26601819176435        0.98961429594769        0.05519478697959
N            0.73533787765389        0.33539375689699        0.86609916213266
C            2.10809620344410        0.75515057557130        0.63737454190037
C            2.69732066983487        0.47375565841594       -0.75961260195725
C            4.19564565733993        0.57532280898841       -0.70192863561258
C            4.84608475625589        1.77439015812544       -0.92187809228708
C            6.22752860788430        1.86334591227348       -0.80940296608926
C            6.98137945339675        0.75247814058561       -0.47027973575714
O            8.32820030459122        0.72626370246163       -0.32685052609796
C            9.05378273953971        1.91507449101684       -0.52485675481096
C            6.32400671638281       -0.48326522506852       -0.24740946451610
O            7.13454181004291       -1.52204594637740        0.07254986760220
C            6.56405615261458       -2.79243207054215        0.26407797942583
C            4.94706974081063       -0.54927587800758       -0.36251664004521
C            0.59887610698464       -1.10343561349426        1.00437131844187
C           -3.49726145086160        2.47717585280032        0.10578386043023
C           -4.60124405643688        2.42861074158646        1.16034847059443
C           -2.36352654893172        3.40378292180631        0.54874154709369
H           -4.90394155338531        0.55938373850252       -1.54226661545002
H           -7.14318731398152        0.49916153078001       -2.19618442029871
H           -7.84829568079481       -0.88027740782527       -3.07134412081347
H           -6.11806325106334       -0.50897965189669       -3.26065723721521
H           -6.41125781086997       -3.81321305905802        2.32382077571441
H           -7.14907174469218       -4.89305584976882        1.11613621777569
H           -5.37657734047521       -4.75649399000378        1.21226907071036
H           -4.31295339509869       -2.79536838923541        2.00063473003467
H           -2.77268146337196       -0.98386869229638        1.84057874571662
H           -2.71829755928859        0.46440841335641       -2.18862847832366
H           -1.92269864829206        2.01162181340328       -1.90214115625770
H           -0.95899388097809       -0.74539195076044       -1.04914016132024
H           -0.07881206511548        0.41416020261572       -2.05550283024492
H           -1.58785420088860        0.45607499181273        1.67480301167105
H            0.13673640679105        1.97264735922397       -0.21734532811306
H            2.71941880483596        0.24160208003135        1.38222126656720
H            2.17760636966359        1.82841601308999        0.84305894385156
H            2.29893539172354        1.18742995965342       -1.48317582285442
H            2.41264718058829       -0.53081856869885       -1.07491469916860
H            4.28325953714949        2.65568871507763       -1.19214845368618
H            6.70665145996195        2.81130857747819       -0.99258767551598
H            8.74618524284659        2.69618232045399        0.17791841273999
H            8.94897347170802        2.28498790644804       -1.54979301240579
H           10.09479293453002        1.65588732402227       -0.34095552637078
H            7.39711091816822       -3.45767703175063        0.48325334208355
H            5.86633387546864       -2.79899800584606        1.10846647011539
H            6.04954600124578       -3.14274392879895       -0.63675836166246
H            4.43479800826794       -1.48419401797711       -0.19578766300448
H            0.93962425708801       -1.66235812149109        0.12631395680662
H           -0.44002797682852       -1.36627185709742        1.18983440722870
H            1.19197152999473       -1.41830498071170        1.86179978892680
H           -3.92942838896102        2.81712141263064       -0.83529658184245
H           -4.25549487941173        1.99051642288434        2.09431022179849
H           -5.43059396850087        1.82190235047443        0.81128533607282
H           -4.97658163005312        3.43039519542631        1.35606481318369
H           -2.71377386122818        4.32051990213245        1.02252751894101
H           -0.65716893379597        2.89800121204660        1.66413870179441
H           -1.71268392183239        3.65938685320611       -0.28781156609161
H           -2.11704531308685        2.51886729832879        2.38594227274328

 Bond Distances (Angstroems)
 ---------------------------
N1-C2=1.4953         N1-C33=1.4810        N1-H70=1.0226        N1-H72=1.0247        C2-N1=1.4953         C2-C3=1.5489         
C2-C16=1.5495        C2-H47=1.0871        C3-C2=1.5489         C3-C4=1.5187         C3-C14=1.5494        C3-C31=1.5563        
C4-C3=1.5187         C4-C5=1.4022         C4-C13=1.3815        C5-C4=1.4022         C5-C6=1.3821         C5-H34=1.0780        
C6-C5=1.3821         C6-O7=1.3530         C6-C9=1.4188         O7-C6=1.3530         O7-C8=1.4061         C8-O7=1.4061         
C8-H35=1.0952        C8-H36=1.0881        C8-H37=1.0950        C9-C6=1.4188         C9-O10=1.3500        C9-C12=1.3829        
O10-C9=1.3500        O10-C11=1.4081       C11-O10=1.4081       C11-H38=1.0945       C11-H39=1.0880       C11-H40=1.0946       
C12-C9=1.3829        C12-C13=1.3913       C12-H41=1.0773       C13-C4=1.3815        C13-C12=1.3913       C13-H42=1.0786       
C14-C3=1.5494        C14-C15=1.5227       C14-H43=1.0863       C14-H44=1.0914       C15-C14=1.5227       C15-C16=1.5391       
C15-H45=1.0882       C15-H46=1.0871       C16-C2=1.5495        C16-C15=1.5391       C16-N17=1.4451       C16-H48=1.0967       
N17-C16=1.4451       N17-C18=1.4536       N17-C30=1.4519       C18-N17=1.4536       C18-C19=1.5421       C18-H49=1.0919       
C18-H50=1.0950       C19-C18=1.5421       C19-C20=1.5029       C19-H51=1.0916       C19-H52=1.0907       C20-C19=1.5029       
C20-C21=1.3817       C20-C29=1.3945       C21-C20=1.3817       C21-C22=1.3889       C21-H53=1.0800       C22-C21=1.3889       
C22-C23=1.3847       C22-H54=1.0778       C23-C22=1.3847       C23-O24=1.3547       C23-C26=1.4173       O24-C23=1.3547       
O24-C25=1.4068       C25-O24=1.4068       C25-H55=1.0948       C25-H56=1.0947       C25-H57=1.0884       C26-C23=1.4173       
C26-O27=1.3559       C26-C29=1.3833       O27-C26=1.3559       O27-C28=1.4057       C28-O27=1.4057       C28-H58=1.0884       
C28-H59=1.0954       C28-H60=1.0950       C29-C20=1.3945       C29-C26=1.3833       C29-H61=1.0790       C30-N17=1.4519       
C30-H62=1.0952       C30-H63=1.0876       C30-H64=1.0891       C31-C3=1.5563        C31-C32=1.5275       C31-C33=1.5298       
C31-H65=1.0899       C32-C31=1.5275       C32-H66=1.0880       C32-H67=1.0852       C32-H68=1.0875       C33-N1=1.4810        
C33-C31=1.5298       C33-H69=1.0897       C33-H71=1.0903       H34-C5=1.0780        H35-C8=1.0952        H36-C8=1.0881        
H37-C8=1.0950        H38-C11=1.0945       H39-C11=1.0880       H40-C11=1.0946       H41-C12=1.0773       H42-C13=1.0786       
H43-C14=1.0863       H44-C14=1.0914       H45-C15=1.0882       H46-C15=1.0871       H47-C2=1.0871        H48-C16=1.0967       
H49-C18=1.0919       H50-C18=1.0950       H51-C19=1.0916       H52-C19=1.0907       H53-C21=1.0800       H54-C22=1.0778       
H55-C25=1.0948       H56-C25=1.0947       H57-C25=1.0884       H58-C28=1.0884       H59-C28=1.0954       H60-C28=1.0950       
H61-C29=1.0790       H62-C30=1.0952       H63-C30=1.0876       H64-C30=1.0891       H65-C31=1.0899       H66-C32=1.0880       
H67-C32=1.0852       H68-C32=1.0875       H69-C33=1.0897       H70-N1=1.0226        H71-C33=1.0903       H72-N1=1.0247        
 C  H  Rav=1.0890 sigma=0.0056  Rmin=1.0773  Rmax=1.0967    37
 C  C  Rav=1.4607 sigma=0.0727  Rmin=1.3815  Rmax=1.5563    23
 N  H  Rav=1.0237 sigma=0.0010  Rmin=1.0226  Rmax=1.0247     2
 N  C  Rav=1.4654 sigma=0.0193  Rmin=1.4451  Rmax=1.4953     5
 O  C  Rav=1.3800 sigma=0.0267  Rmin=1.3500  Rmax=1.4081     8

 selected bond angles (degree)
 --------------------
C33-N1-C2=105.68               H70-N1-C2=110.12               H70-N1-C33=112.77              H72-N1-C2=109.92               
H72-N1-C33=108.75              H72-N1-H70=109.51              C3-C2-N1=106.43                C16-C2-N1=111.47               
C16-C2-C3=108.15               H47-C2-N1=108.35               H47-C2-C3=113.92               H47-C2-C16=108.56              
C4-C3-C2=115.60                C14-C3-C2=103.45               C14-C3-C4=109.80               C31-C3-C2=103.95               
C31-C3-C4=111.92               C31-C3-C14=111.77              C5-C4-C3=116.89                C13-C4-C3=124.98               
C13-C4-C5=118.13               C6-C5-C4=121.72                H34-C5-C4=118.89               H34-C5-C6=119.38               
O7-C6-C5=125.34                C9-C6-C5=119.46                C9-C6-O7=115.21                C8-O7-C6=119.16                
H35-C8-O7=111.70               H36-C8-O7=105.51               H36-C8-H35=109.17              H37-C8-O7=111.60               
H37-C8-H35=109.53              H37-C8-H36=109.22              O10-C9-C6=115.66               C12-C9-C6=118.57               
C12-C9-O10=125.77              C11-O10-C9=118.69              

 selected dihedral angles (degree)
 ---------------------------------
C3-C2-N1-C33=336.40           C3-C2-N1-H70=214.33           C3-C2-N1-H72= 93.59           C16-C2-N1-C33= 94.11          
C16-C2-N1-H70=332.04          C16-C2-N1-H72=211.29          H47-C2-N1-C33=213.50          H47-C2-N1-H70= 91.43          
H47-C2-N1-H72=330.69          C4-C3-C2-N1=233.95            C4-C3-C2-C16=114.06           C4-C3-C2-H47=353.28           
C14-C3-C2-N1=113.89           C14-C3-C2-C16=354.01          C14-C3-C2-H47=233.22          C31-C3-C2-N1=357.00           
C31-C3-C2-C16=237.12          C31-C3-C2-H47=116.33          C5-C4-C3-C2=182.01            C5-C4-C3-C14=298.54           
C5-C4-C3-C31= 63.27           C13-C4-C3-C2=  1.98           C13-C4-C3-C14=118.51          C13-C4-C3-C31=243.24          
C6-C5-C4-C3=179.25            C6-C5-C4-C13=359.28           H34-C5-C4-C3=358.93           H34-C5-C4-C13=178.96          
O7-C6-C5-C4=179.93            O7-C6-C5-H34=  0.25           C9-C6-C5-C4=359.96            C9-C6-C5-H34=180.28           
C8-O7-C6-C5=  1.76            C8-O7-C6-C9=181.73            H35-C8-O7-C6=297.74           H36-C8-O7-C6=179.24           
H37-C8-O7-C6= 60.73           O10-C9-C6-C5=180.58           O10-C9-C6-O7=  0.60           C12-C9-C6-C5=  0.64           
C12-C9-C6-O7=180.66           C11-O10-C9-C6=178.99          C11-O10-C9-C12=358.93         
           -------------------------------------------------
          |                Final Singlepoint                |
           -------------------------------------------------

          ...................................................
          :                      SETUP                      :
          :.................................................:
          :  # basis functions                 171          :
          :  # atomic orbitals                 171          :
          :  # shells                          105          :
          :  # electrons                       180          :
          :  max. iterations                   250          :
          :  Hamiltonian                  GFN2-xTB          :
          :  restarted?                      false          :
          :  GBSA solvation                  false          :
          :  PC potential                    false          :
          :  electronic temp.         5000.0000000     K    :
          :  accuracy                    1.0000000          :
          :  -> integral cutoff          0.2500000E+02      :
          :  -> integral neglect         0.1000000E-07      :
          :  -> SCF convergence          0.1000000E-05 Eh   :
          :  -> wf. convergence          0.1000000E-03 e    :
          :  Broyden damping             0.4000000          :
          ...................................................

 iter      E             dE          RMSdq      gap      omega  full diag
   1   -100.7739876 -0.100774E+03  0.655E-05    3.27       0.0  T
   2   -100.7739876 -0.840856E-10  0.379E-05    3.27     311.2  T
   3   -100.7739876 -0.399325E-10  0.223E-05    3.27     528.5  T

   *** convergence criteria satisfied after 3 iterations ***

         #    Occupation            Energy/Eh            Energy/eV
      -------------------------------------------------------------
         1        2.0000           -0.8574081             -23.3313
       ...           ...                  ...                  ...
        84        1.9995           -0.5007063             -13.6249
        85        1.9992           -0.4919940             -13.3878
        86        1.9980           -0.4784276             -13.0187
        87        1.9952           -0.4640973             -12.6287
        88        1.9916           -0.4553432             -12.3905
        89        1.9866           -0.4478102             -12.1855
        90        1.9491           -0.4264496             -11.6043 (HOMO)
        91        0.0382           -0.3063426              -8.3360 (LUMO)
        92        0.0290           -0.3018882              -8.2148
        93        0.0084           -0.2820492              -7.6750
        94        0.0068           -0.2787453              -7.5850
        95        0.0001           -0.2146838              -5.8418
       ...           ...                  ...                  ...
       171                          0.6098803              16.5957
      -------------------------------------------------------------
                  HL-Gap            0.1201070 Eh            3.2683 eV
             Fermi-level           -0.3687156 Eh          -10.0333 eV

 SCC (total)                   0 d,  0 h,  0 min,  0.117 sec
 SCC setup                      ...        0 min,  0.001 sec (  0.742%)
 Dispersion                     ...        0 min,  0.002 sec (  1.339%)
 classical contributions        ...        0 min,  0.000 sec (  0.366%)
 integral evaluation            ...        0 min,  0.018 sec ( 15.412%)
 iterations                     ...        0 min,  0.026 sec ( 22.428%)
 molecular gradient             ...        0 min,  0.069 sec ( 59.222%)
 printout                       ...        0 min,  0.001 sec (  0.477%)

         :::::::::::::::::::::::::::::::::::::::::::::::::::::
         ::                     SUMMARY                     ::
         :::::::::::::::::::::::::::::::::::::::::::::::::::::
         :: total energy             -99.441322545672 Eh    ::
         :: gradient norm              0.004483029222 Eh/a0 ::
         :: HOMO-LUMO gap              3.268277695620 eV    ::
         ::.................................................::
         :: SCC energy              -100.773987563490 Eh    ::
         :: -> isotropic ES            0.137502365854 Eh    ::
         :: -> anisotropic ES          0.007241477313 Eh    ::
         :: -> anisotropic XC          0.037730112795 Eh    ::
         :: -> dispersion             -0.076232855631 Eh    ::
         :: repulsion energy           1.331818312406 Eh    ::
         :: add. restraining           0.000000000000 Eh    ::
         :: total charge               0.999999999637 e     ::
         :::::::::::::::::::::::::::::::::::::::::::::::::::::

           -------------------------------------------------
          |                Property Printout                |
           -------------------------------------------------

    * Orbital Energies and Occupations

         #    Occupation            Energy/Eh            Energy/eV
      -------------------------------------------------------------
         1        2.0000           -0.8574081             -23.3313
       ...           ...                  ...                  ...
        78        1.9999           -0.5254831             -14.2991
        79        1.9999           -0.5208467             -14.1730
        80        1.9998           -0.5180535             -14.0970
        81        1.9998           -0.5130733             -13.9614
        82        1.9998           -0.5125085             -13.9461
        83        1.9997           -0.5068002             -13.7907
        84        1.9995           -0.5007063             -13.6249
        85        1.9992           -0.4919940             -13.3878
        86        1.9980           -0.4784276             -13.0187
        87        1.9952           -0.4640973             -12.6287
        88        1.9916           -0.4553432             -12.3905
        89        1.9866           -0.4478102             -12.1855
        90        1.9491           -0.4264496             -11.6043 (HOMO)
        91        0.0382           -0.3063426              -8.3360 (LUMO)
        92        0.0290           -0.3018882              -8.2148
        93        0.0084           -0.2820492              -7.6750
        94        0.0068           -0.2787453              -7.5850
        95        0.0001           -0.2146838              -5.8418
        96        0.0000           -0.1818354              -4.9480
        97        0.0000           -0.1623199              -4.4169
        98        0.0000           -0.1560361              -4.2460
        99        0.0000           -0.1329004              -3.6164
       100        0.0000           -0.1191623              -3.2426
       101                         -0.0991144              -2.6970
       ...                                ...                  ...
       171                          0.6098803              16.5957
      -------------------------------------------------------------
                  HL-Gap            0.1201070 Eh            3.2683 eV
             Fermi-level           -0.3687156 Eh          -10.0333 eV

     #   Z          covCN         q      C6AA      α(0)
     1   7 N        3.545    -0.045    22.113     6.984
     2   6 C        3.834    -0.002    20.586     6.455
     3   6 C        3.932     0.005    20.427     6.423
     4   6 C        2.967    -0.018    28.457     8.750
     5   6 C        2.924    -0.088    30.194     9.011
     6   6 C        2.863     0.126    25.232     8.234
     7   8 O        1.706    -0.240    17.981     5.725
     8   6 C        3.645     0.031    20.388     6.490
     9   6 C        2.865     0.127    25.203     8.229
    10   8 O        1.706    -0.237    17.935     5.718
    11   6 C        3.646     0.029    20.408     6.492
    12   6 C        2.915    -0.077    29.911     8.968
    13   6 C        2.921    -0.061    29.520     8.910
    14   6 C        3.830    -0.074    21.890     6.657
    15   6 C        3.823    -0.073    21.885     6.657
    16   6 C        3.814     0.034    19.990     6.364
    17   7 N        2.725    -0.185    25.009     7.427
    18   6 C        3.754    -0.000    20.638     6.478
    19   6 C        3.806    -0.068    21.799     6.647
    20   6 C        2.970    -0.007    28.187     8.709
    21   6 C        2.922    -0.054    29.353     8.885
    22   6 C        2.915    -0.072    29.801     8.952
    23   6 C        2.865     0.126    25.240     8.235
    24   8 O        1.706    -0.242    18.007     5.729
    25   6 C        3.645     0.032    20.371     6.487
    26   6 C        2.864     0.126    25.228     8.233
    27   8 O        1.706    -0.243    18.021     5.732
    28   6 C        3.645     0.033    20.344     6.482
    29   6 C        2.922    -0.082    30.059     8.991
    30   6 C        3.701    -0.042    21.492     6.630
    31   6 C        3.870    -0.029    21.041     6.523
    32   6 C        3.754    -0.124    22.938     6.829
    33   6 C        3.771    -0.029    21.127     6.550
    34   1 H        0.926     0.039     2.464     2.455
    35   1 H        0.924     0.042     2.428     2.437
    36   1 H        0.925     0.077     2.009     2.217
    37   1 H        0.924     0.044     2.399     2.422
    38   1 H        0.924     0.047     2.363     2.404
    39   1 H        0.925     0.076     2.016     2.220
    40   1 H        0.924     0.047     2.356     2.400
    41   1 H        0.926     0.048     2.348     2.396
    42   1 H        0.926     0.020     2.736     2.586
    43   1 H        0.925     0.067     2.117     2.276
    44   1 H        0.924     0.040     2.449     2.447
    45   1 H        0.925     0.060     2.202     2.321
    46   1 H        0.925     0.058     2.227     2.334
    47   1 H        0.925     0.092     1.857     2.131
    48   1 H        0.924     0.040     2.454     2.450
    49   1 H        0.924     0.053     2.282     2.363
    50   1 H        0.924     0.026     2.644     2.543
    51   1 H        0.924     0.031     2.577     2.510
    52   1 H        0.924     0.042     2.426     2.436
    53   1 H        0.926     0.030     2.592     2.518
    54   1 H        0.926     0.046     2.371     2.408
    55   1 H        0.924     0.044     2.393     2.419
    56   1 H        0.924     0.046     2.366     2.405
    57   1 H        0.925     0.073     2.054     2.241
    58   1 H        0.925     0.073     2.057     2.243
    59   1 H        0.924     0.041     2.440     2.443
    60   1 H        0.924     0.044     2.393     2.419
    61   1 H        0.926     0.039     2.463     2.454
    62   1 H        0.924     0.035     2.521     2.483
    63   1 H        0.925     0.042     2.425     2.435
    64   1 H        0.925     0.054     2.271     2.357
    65   1 H        0.925     0.076     2.025     2.226
    66   1 H        0.925     0.040     2.452     2.449
    67   1 H        0.925     0.074     2.043     2.235
    68   1 H        0.925     0.056     2.243     2.342
    69   1 H        0.925     0.090     1.881     2.145
    70   1 H        0.859     0.240     0.921     1.504
    71   1 H        0.924     0.090     1.876     2.142
    72   1 H        0.859     0.244     0.908     1.492

 Mol. C6AA /au·bohr⁶  :      46861.285143
 Mol. C8AA /au·bohr⁸  :    1066361.840333
 Mol. α(0) /au        :        330.291823


Wiberg/Mayer (AO) data.
largest (>0.10) Wiberg bond orders for each atom

 ---------------------------------------------------------------------------
     #   Z sym  total        # sym  WBO       # sym  WBO       # sym  WBO
 ---------------------------------------------------------------------------
     1   7 N    3.724 --    33 C    0.938    70 H    0.914    72 H    0.913
                             2 C    0.907
     2   6 C    3.896 --     3 C    0.968    16 C    0.966    47 H    0.946
                             1 N    0.907
     3   6 C    3.977 --     4 C    0.984    14 C    0.971     2 C    0.968
                            31 C    0.955
     4   6 C    3.950 --    13 C    1.441     5 C    1.342     3 C    0.984
     5   6 C    3.956 --     6 C    1.416     4 C    1.342    34 H    0.962
     6   6 C    3.920 --     5 C    1.416     9 C    1.230     7 O    1.085
     7   8 O    2.261 --     6 C    1.085     8 C    0.983
     8   6 C    3.940 --     7 O    0.983    36 H    0.977    37 H    0.976
                            35 H    0.975
     9   6 C    3.917 --    12 C    1.403     6 C    1.230    10 O    1.093
    10   8 O    2.265 --     9 C    1.093    11 C    0.980
    11   6 C    3.938 --    10 O    0.980    39 H    0.978    40 H    0.976
                            38 H    0.975
    12   6 C    3.962 --     9 C    1.403    13 C    1.384    41 H    0.965
    13   6 C    3.965 --     4 C    1.441    12 C    1.384    42 H    0.957
    14   6 C    3.990 --    15 C    1.008    44 H    0.974    43 H    0.972
                             3 C    0.971
    15   6 C    3.991 --    14 C    1.008    46 H    0.974    16 C    0.973
                            45 H    0.973
    16   6 C    3.983 --    17 N    1.014    15 C    0.973     2 C    0.966
                            48 H    0.956
    17   7 N    3.151 --    16 C    1.014    30 C    1.009    18 C    0.998
    18   6 C    3.975 --    17 N    0.998    19 C    0.975    50 H    0.973
                            49 H    0.970
    19   6 C    3.995 --    20 C    1.008    18 C    0.975    51 H    0.975
                            52 H    0.969
    20   6 C    3.968 --    21 C    1.431    29 C    1.370    19 C    1.008
    21   6 C    3.971 --    20 C    1.431    22 C    1.402    53 H    0.970
    22   6 C    3.972 --    23 C    1.402    21 C    1.402    54 H    0.965
    23   6 C    3.919 --    22 C    1.402    26 C    1.241    24 O    1.083
    24   8 O    2.249 --    23 C    1.083    25 C    0.982
    25   6 C    3.940 --    24 O    0.982    57 H    0.978    55 H    0.975
                            56 H    0.975
    26   6 C    3.921 --    29 C    1.410    23 C    1.241    27 O    1.080
    27   8 O    2.249 --    26 C    1.080    28 C    0.984
    28   6 C    3.942 --    27 O    0.984    58 H    0.978    60 H    0.975
                            59 H    0.975
    29   6 C    3.970 --    26 C    1.410    20 C    1.370    61 H    0.963
    30   6 C    3.980 --    17 N    1.009    64 H    0.980    63 H    0.977
                            62 H    0.972
    31   6 C    3.981 --    32 C    1.010    33 C    0.993    65 H    0.961
                             3 C    0.955
    32   6 C    3.989 --    31 C    1.010    68 H    0.982    66 H    0.982
                            67 H    0.978
    33   6 C    3.915 --    31 C    0.993    69 H    0.968    71 H    0.967
                             1 N    0.938
    34   1 H    0.998 --     5 C    0.962
    35   1 H    0.998 --     8 C    0.975
    36   1 H    0.994 --     8 C    0.977
    37   1 H    0.997 --     8 C    0.976
    38   1 H    0.997 --    11 C    0.975
    39   1 H    0.994 --    11 C    0.978
    40   1 H    0.997 --    11 C    0.976
    41   1 H    0.997 --    12 C    0.965
    42   1 H    0.999 --    13 C    0.957
    43   1 H    0.995 --    14 C    0.972
    44   1 H    0.998 --    14 C    0.974
    45   1 H    0.996 --    15 C    0.973
    46   1 H    0.996 --    15 C    0.974
    47   1 H    0.991 --     2 C    0.946
    48   1 H    0.998 --    16 C    0.956
    49   1 H    0.997 --    18 C    0.970
    50   1 H    0.999 --    18 C    0.973
    51   1 H    0.998 --    19 C    0.975
    52   1 H    0.997 --    19 C    0.969
    53   1 H    0.999 --    21 C    0.970
    54   1 H    0.997 --    22 C    0.965
    55   1 H    0.996 --    25 C    0.975
    56   1 H    0.996 --    25 C    0.975
    57   1 H    0.994 --    25 C    0.978
    58   1 H    0.994 --    28 C    0.978
    59   1 H    0.997 --    28 C    0.975
    60   1 H    0.997 --    28 C    0.975
    61   1 H    0.998 --    29 C    0.963
    62   1 H    0.998 --    30 C    0.972
    63   1 H    0.998 --    30 C    0.977
    64   1 H    0.997 --    30 C    0.980
    65   1 H    0.994 --    31 C    0.961
    66   1 H    0.998 --    32 C    0.982
    67   1 H    0.994 --    32 C    0.978
    68   1 H    0.996 --    32 C    0.982
    69   1 H    0.991 --    33 C    0.968
    70   1 H    0.942 --     1 N    0.914
    71   1 H    0.992 --    33 C    0.967
    72   1 H    0.940 --     1 N    0.913
 ---------------------------------------------------------------------------

Topologies differ in total number of bonds
Writing topology from bond orders to xtbtopo.mol

molecular dipole:
                 x           y           z       tot (Debye)
 q only:       -2.728       3.456       1.618
   full:       -2.491       3.716       1.722      12.184
molecular quadrupole (traceless):
                xx          xy          yy          xz          yz          zz
 q only:       16.703     -11.055       9.275      -6.942       4.344     -25.979
  q+dip:        6.650     -10.410      15.409      -9.537       3.881     -22.059
   full:        6.086     -11.044      15.085     -10.435       4.759     -21.171

           -------------------------------------------------
          |                Geometry Summary                 |
           -------------------------------------------------

      molecular mass/u    :      455.6105846
   center of mass at/Å    :       -0.0865182       0.0428708      -0.0516139
  moments of inertia/u·Å² :        0.1866478E+04   0.1210827E+05   0.1308262E+05
rotational constants/cm⁻¹ :        0.9031790E-02   0.1392241E-02   0.1288552E-02

 * 68 selected distances

     #   Z          #   Z                                           value/Å
     1   7 N        2   6 C                                       1.4952699
     4   6 C        5   6 C                                       1.4021735
     5   6 C        6   6 C                                       1.3820973
     6   6 C        7   8 O                                       1.3530314
     7   8 O        8   6 C                                       1.4060616
     6   6 C        9   6 C                                       1.4187894
     9   6 C       10   8 O                                       1.3499982
    10   8 O       11   6 C                                       1.4081134
     9   6 C       12   6 C                                       1.3828881
     4   6 C       13   6 C                                       1.3815391
    12   6 C       13   6 C                                       1.3912963
    14   6 C       15   6 C                                       1.5227182
    15   6 C       16   6 C                                       1.5390930 (max)
    16   6 C       17   7 N                                       1.4450899
    17   7 N       18   6 C                                       1.4536081
    20   6 C       21   6 C                                       1.3817423
    21   6 C       22   6 C                                       1.3888669
    22   6 C       23   6 C                                       1.3846744
    23   6 C       24   8 O                                       1.3546903
    24   8 O       25   6 C                                       1.4067508
    23   6 C       26   6 C                                       1.4173469
    26   6 C       27   8 O                                       1.3558786
    27   8 O       28   6 C                                       1.4057091
    20   6 C       29   6 C                                       1.3944753
    26   6 C       29   6 C                                       1.3833159
    17   7 N       30   6 C                                       1.4518854
    31   6 C       32   6 C                                       1.5274957
     1   7 N       33   6 C                                       1.4809696
    31   6 C       33   6 C                                       1.5297606
     5   6 C       34   1 H                                       1.0780331
     8   6 C       35   1 H                                       1.0951887
     8   6 C       36   1 H                                       1.0881334
     8   6 C       37   1 H                                       1.0949804
    11   6 C       38   1 H                                       1.0945417
    11   6 C       39   1 H                                       1.0880406
    11   6 C       40   1 H                                       1.0945629
    12   6 C       41   1 H                                       1.0773278
    13   6 C       42   1 H                                       1.0786173
    14   6 C       43   1 H                                       1.0862992
    14   6 C       44   1 H                                       1.0914217
    15   6 C       45   1 H                                       1.0882054
    15   6 C       46   1 H                                       1.0871083
     2   6 C       47   1 H                                       1.0870929
    16   6 C       48   1 H                                       1.0967423
    18   6 C       49   1 H                                       1.0918994
    18   6 C       50   1 H                                       1.0950053
    19   6 C       51   1 H                                       1.0915978
    19   6 C       52   1 H                                       1.0906989
    21   6 C       53   1 H                                       1.0800489
    22   6 C       54   1 H                                       1.0778445
    25   6 C       55   1 H                                       1.0948236
    25   6 C       56   1 H                                       1.0946760
    25   6 C       57   1 H                                       1.0884393
    28   6 C       58   1 H                                       1.0883791
    28   6 C       59   1 H                                       1.0953774
    28   6 C       60   1 H                                       1.0949637
    29   6 C       61   1 H                                       1.0790241
    30   6 C       62   1 H                                       1.0952117
    30   6 C       63   1 H                                       1.0875667
    30   6 C       64   1 H                                       1.0890770
    31   6 C       65   1 H                                       1.0899376
    32   6 C       66   1 H                                       1.0880045
    32   6 C       67   1 H                                       1.0852473
    32   6 C       68   1 H                                       1.0875456
    33   6 C       69   1 H                                       1.0897492
     1   7 N       70   1 H                                       1.0226405 (min)
    33   6 C       71   1 H                                       1.0902985
     1   7 N       72   1 H                                       1.0247341

 * 5 distinct bonds (by element types)

   Z      Z             #   av. dist./Å        max./Å        min./Å
   1 H    6 C          37     1.0889652     1.0967423     1.0773278
   6 C    6 C          16     1.4267671     1.5390930     1.3815391
   1 H    7 N           2     1.0236873     1.0247341     1.0226405
   6 C    7 N           5     1.4653646     1.4952699     1.4450899
   6 C    8 O           8     1.3800292     1.4081134     1.3499982


optimized geometry written to: xtbopt.xyz


           -------------------------------------------------
          | TOTAL ENERGY              -99.441322545672 Eh   |
          | GRADIENT NORM               0.004483029222 Eh/α |
          | HOMO-LUMO GAP               3.268277695620 eV   |
           -------------------------------------------------

------------------------------------------------------------------------
 * finished run on 2024/04/06 at 11:15:40.590     
------------------------------------------------------------------------
 total:
 * wall-time:     0 d,  0 h,  0 min,  0.937 sec
 *  cpu-time:     0 d,  0 h,  0 min,  0.909 sec
 * ratio c/w:     0.969 speedup
 SCF:
 * wall-time:     0 d,  0 h,  0 min,  0.120 sec
 *  cpu-time:     0 d,  0 h,  0 min,  0.120 sec
 * ratio c/w:     1.000 speedup
 ANC optimizer:
 * wall-time:     0 d,  0 h,  0 min,  0.771 sec
 *  cpu-time:     0 d,  0 h,  0 min,  0.764 sec
 * ratio c/w:     0.991 speedup

