72
 energy: -99.441322545672 gnorm: 0.004483029222 xtb: 6.6.1 (8d0f1dd)
N           -1.60653165446521        2.55599259309223        1.49820506713444
C           -1.56229367077706        1.19583825336199        0.87864494524805
C           -2.76759819206560        1.11671478686470       -0.09099476065768
C           -3.70131885617349       -0.06272665411984        0.11774873307644
C           -4.77744731494338       -0.18498639676432       -0.77280743858457
C           -5.67929627732861       -1.22852454568350       -0.68398687919828
O           -6.74142079502576       -1.41661146581570       -1.50081516482685
C           -6.95917596509523       -0.51744329060566       -2.55962971945115
C           -5.51766259499953       -2.20578162109672        0.33179168531404
O           -6.43423220800366       -3.19690038075361        0.34065684318489
C           -6.32181258577501       -4.21311192488669        1.30888150268551
C           -4.46182056691715       -2.07339472876090        1.21499638403864
C           -3.56674099296074       -1.01331899017312        1.11118369392774
C           -2.10170925124918        1.01842847609008       -1.48654128136444
C           -0.77740663404646        0.31240503880726       -1.22881317914073
C           -0.26601819176435        0.98961429594769        0.05519478697959
N            0.73533787765389        0.33539375689699        0.86609916213266
C            2.10809620344410        0.75515057557130        0.63737454190037
C            2.69732066983487        0.47375565841594       -0.75961260195725
C            4.19564565733993        0.57532280898841       -0.70192863561258
C            4.84608475625589        1.77439015812544       -0.92187809228708
C            6.22752860788430        1.86334591227348       -0.80940296608926
C            6.98137945339675        0.75247814058561       -0.47027973575714
O            8.32820030459122        0.72626370246163       -0.32685052609796
C            9.05378273953971        1.91507449101684       -0.52485675481096
C            6.32400671638281       -0.48326522506852       -0.24740946451610
O            7.13454181004291       -1.52204594637740        0.07254986760220
C            6.56405615261458       -2.79243207054215        0.26407797942583
C            4.94706974081063       -0.54927587800758       -0.36251664004521
C            0.59887610698464       -1.10343561349426        1.00437131844187
C           -3.49726145086160        2.47717585280032        0.10578386043023
C           -4.60124405643688        2.42861074158646        1.16034847059443
C           -2.36352654893172        3.40378292180631        0.54874154709369
H           -4.90394155338531        0.55938373850252       -1.54226661545002
H           -7.14318731398152        0.49916153078001       -2.19618442029871
H           -7.84829568079481       -0.88027740782527       -3.07134412081347
H           -6.11806325106334       -0.50897965189669       -3.26065723721521
H           -6.41125781086997       -3.81321305905802        2.32382077571441
H           -7.14907174469218       -4.89305584976882        1.11613621777569
H           -5.37657734047521       -4.75649399000378        1.21226907071036
H           -4.31295339509869       -2.79536838923541        2.00063473003467
H           -2.77268146337196       -0.98386869229638        1.84057874571662
H           -2.71829755928859        0.46440841335641       -2.18862847832366
H           -1.92269864829206        2.01162181340328       -1.90214115625770
H           -0.95899388097809       -0.74539195076044       -1.04914016132024
H           -0.07881206511548        0.41416020261572       -2.05550283024492
H           -1.58785420088860        0.45607499181273        1.67480301167105
H            0.13673640679105        1.97264735922397       -0.21734532811306
H            2.71941880483596        0.24160208003135        1.38222126656720
H            2.17760636966359        1.82841601308999        0.84305894385156
H            2.29893539172354        1.18742995965342       -1.48317582285442
H            2.41264718058829       -0.53081856869885       -1.07491469916860
H            4.28325953714949        2.65568871507763       -1.19214845368618
H            6.70665145996195        2.81130857747819       -0.99258767551598
H            8.74618524284659        2.69618232045399        0.17791841273999
H            8.94897347170802        2.28498790644804       -1.54979301240579
H           10.09479293453002        1.65588732402227       -0.34095552637078
H            7.39711091816822       -3.45767703175063        0.48325334208355
H            5.86633387546864       -2.79899800584606        1.10846647011539
H            6.04954600124578       -3.14274392879895       -0.63675836166246
H            4.43479800826794       -1.48419401797711       -0.19578766300448
H            0.93962425708801       -1.66235812149109        0.12631395680662
H           -0.44002797682852       -1.36627185709742        1.18983440722870
H            1.19197152999473       -1.41830498071170        1.86179978892680
H           -3.92942838896102        2.81712141263064       -0.83529658184245
H           -4.25549487941173        1.99051642288434        2.09431022179849
H           -5.43059396850087        1.82190235047443        0.81128533607282
H           -4.97658163005312        3.43039519542631        1.35606481318369
H           -2.71377386122818        4.32051990213245        1.02252751894101
H           -0.65716893379597        2.89800121204660        1.66413870179441
H           -1.71268392183239        3.65938685320611       -0.28781156609161
H           -2.11704531308685        2.51886729832879        2.38594227274328
