25
 energy: 0.000000000000 xtb: 6.6.1 (8d0f1dd)
C            3.23720163006194        1.16630919979326        0.08434469647475
N            2.29877817382611        0.07527477071623        0.03981603040599
C            2.58028210190900       -1.21425402444508        0.03006176031096
N            1.43813958087363       -1.93419271955128        0.00098261760884
C            0.39035688448383       -1.05887472636071       -0.00790371836672
C            0.93510056364412        0.21347819449412        0.01709077491437
C            0.09450143893243        1.40504303904423       -0.00410947031874
O            0.49712751527797        2.54126714362870       -0.00342325688240
N           -1.25076640035757        1.06271879480407       -0.03085478223738
C           -2.21907211982101        2.15522099834493       -0.05001256985998
C           -1.81739487048744       -0.20012725993278       -0.04692818574614
O           -2.99983886758376       -0.37846417018721       -0.07008878229737
N           -0.92618586207120       -1.30210215599479       -0.03682761578324
C           -1.46982264913417       -2.64643102187190       -0.06029820460571
H            3.71247264356769        1.21471455160235        1.06488849150277
H            4.00791497605742        1.03430808813993       -0.67357694370751
H            2.69910007168542        2.09770118228144       -0.09130154882931
H            3.56654120610678       -1.63682992603973        0.04233140067262
H           -1.67107961066214        3.09322851271934       -0.02552706933167
H           -2.82428953597071        2.09428624779827       -0.95318082946668
H           -2.87644029173232        2.07745725625962        0.81450067533302
H           -1.17061996399332       -3.19584890659852        0.83242232437030
H           -1.14560257411436       -3.17511610292205       -0.95688275822323
H           -2.55549792440841       -2.55659984320617       -0.07459039797972
H            1.38130855184625       -2.94313852034425       -0.01389874181052
25
 energy: -5.299294363972 xtb: 6.6.1 (8d0f1dd)
C            3.23719394560286        1.17844759773256        0.08730090911310
N            2.30485827649183        0.09379724290598        0.03851110091607
C            2.59934086265266       -1.23346743302666        0.02918103360945
N            1.42853732085698       -1.94343120044321        0.00027614879949
C            0.39500756102169       -1.06106922877652       -0.00731269416235
C            0.92707460553353        0.21815039864494        0.01695662844676
C            0.09873160387760        1.39148323135707       -0.00321433363603
O            0.49533904478973        2.55701914333375       -0.00193489018749
N           -1.26296089503355        1.04985421381431       -0.03132724476700
C           -2.21643170323179        2.15643598747213       -0.05319905382892
C           -1.82551877806703       -0.20130506133652       -0.04635204358361
O           -3.02292238907074       -0.37434823603668       -0.07089656265027
N           -0.93622409234532       -1.30575166823885       -0.03582272904242
C           -1.46660982550169       -2.65187012392030       -0.05956321283724
H            3.71776458520003        1.22418218509708        1.06814381397100
H            4.00314751566432        1.04768519755259       -0.67833333242718
H            2.68639584075283        2.10134249158325       -0.08487285070704
H            3.57880772002757       -1.65707206578294        0.04049447415188
H           -1.64689215880512        3.08109955990589       -0.02814887118600
H           -2.82911843922310        2.11702797582487       -0.95350220108138
H           -2.87192279663470        2.10277872472703        0.81314132972164
H           -1.15954196587781       -3.20336756025791        0.83155532642209
H           -1.13442311384006       -3.18192047693102       -0.95476704286568
H           -2.55217195159737       -2.56931034993705       -0.07407655492548
H            1.36475389469283       -2.94736194309179       -0.01520325111614
25
 energy: -6.103092909927 xtb: 6.6.1 (8d0f1dd)
C            3.22792572625601        1.19136271676779        0.09217433825385
N            2.30512386171950        0.10416515615117        0.03684175551339
C            2.60930877808419       -1.25266374417238        0.02665953911603
N            1.41320913120043       -1.94923239378855       -0.00112808056515
C            0.39379481704601       -1.06549738591727       -0.00590460789289
C            0.91500755253476        0.21850895625310        0.01806945385013
C            0.09894945522229        1.36913751733469       -0.00147334123619
O            0.47832884298180        2.55316945012494        0.00197146474258
N           -1.28219593096561        1.03493965880006       -0.03357846616465
C           -2.20369048781878        2.16953628510331       -0.05893988132020
C           -1.83732949024903       -0.20592131850647       -0.04618626358596
O           -3.04186750317128       -0.37405043354856       -0.07222968537457
N           -0.95004290590275       -1.31131492758768       -0.03320092427577
C           -1.45546273507366       -2.66528666532872       -0.05736387374271
H            3.72390186306702        1.24041632703042        1.06797346232317
H            3.98679138212600        1.08317666850404       -0.68669780111353
H            2.65765124812810        2.10611079457055       -0.06445608213728
H            3.58315652840817       -1.68044954088333        0.03484659403044
H           -1.58415596920824        3.06441670145955       -0.03910111964856
H           -2.82856134486130        2.16583747879884       -0.95372309237663
H           -2.85549534136169        2.16198358983750        0.81259165057015
H           -1.13398992049194       -3.21775226116939        0.83070490577531
H           -1.10853650240801       -3.19488352190693       -0.94986783467937
H           -2.54220360908890       -2.60575324128825       -0.07245792596281
H            1.34259722176307       -2.95092726446640       -0.01849028795148
25
 energy: -2.275116964458 xtb: 6.6.1 (8d0f1dd)
C            3.19648530382230        1.21270213314743        0.10152917802699
N            2.29717746916822        0.10869455162559        0.03539973443360
C            2.61163628367707       -1.28118542486598        0.02019575543594
N            1.38815165219018       -1.96025924510866       -0.00482425718902
C            0.38385069898538       -1.07811096873713       -0.00256667802993
C            0.89362056241305        0.21056802404606        0.02272349487224
C            0.09219329550705        1.33516126310048        0.00341934310108
O            0.44654804637373        2.53748088201369        0.01178295004024
N           -1.31544836307234        1.01488635807057       -0.03840450206210
C           -2.16922147529447        2.20690812740073       -0.07131309597215
C           -1.86201181406888       -0.21764329636921       -0.04591612282121
O           -3.07232172691348       -0.38154636967646       -0.07484255295398
N           -0.97333159498510       -1.32469118129153       -0.02700882052040
C           -1.42785313141154       -2.69768740846378       -0.05190264398955
H            3.72587335722322        1.26392554728012        1.06342555525909
H            3.93809647901118        1.16314855099922       -0.70623076176319
H            2.58632671166637        2.11328676031168       -0.01248752607820
H            3.57891805108396       -1.71705281517777        0.01985306901317
H           -1.44805904159596        3.03952828379890       -0.07069630124053
H           -2.81515234639752        2.26767374622246       -0.95429481335238
H           -2.80880305411031        2.29464413773898        0.81298193154418
H           -1.07610200987807       -3.24607439681422        0.83145255927621
H           -1.05007501086848       -3.22074503216455       -0.93999691589284
H           -2.51738217427915       -2.69401999676542       -0.06807354260451
H            1.30909849968979       -2.96056362814915       -0.02717114038547
25
 energy: 3.005083461173 xtb: 6.6.1 (8d0f1dd)
C            3.15802245305911        1.22937735564065        0.11018797248678
N            2.28505179599546        0.10447277337552        0.03593846813882
C            2.60572218131394       -1.30108988699541        0.01281978761712
N            1.37078283301607       -1.97317242705479       -0.00986024734116
C            0.37120075750432       -1.09198873374370        0.00073690916721
C            0.87683330048555        0.19699004554344        0.02893243498486
C            0.08414174090851        1.31399978288330        0.01017057818368
O            0.43504110363844        2.52141342123366        0.02281038973036
N           -1.33770852925785        1.00632549388901       -0.04115137457915
C           -2.13379229676893        2.24617848020186       -0.08429093564947
C           -1.88334577558128       -0.22575410515171       -0.04452498154994
O           -3.09609671444119       -0.38720959726049       -0.07644209791513
N           -0.99149213386147       -1.33781803114481       -0.02078386593229
C           -1.40051362780556       -2.72916537680300       -0.04596388827459
H            3.71778570844421        1.27487587600401        1.05738162716315
H            3.87832313397433        1.23756597447715       -0.72587245497644
H            2.50985647892945        2.11525240273304        0.04265293357303
H            3.56960167304197       -1.74211919931283        0.00252549009684
H           -1.33962801111142        3.02671110381886       -0.10717948122757
H           -2.79430508665360        2.35407382469831       -0.95558456866458
H           -2.75419637236354        2.41613058366203        0.81165909865356
H           -1.02086768794095       -3.26933699863580        0.83435871420375
H           -0.99493890638974       -3.24252066776087       -0.93088584496457
H           -2.49120459140969       -2.78130363341176       -0.06272318104103
H            1.28794124121000       -2.97285985871370       -0.03787758573601
25
 energy: 8.672212258239 xtb: 6.6.1 (8d0f1dd)
C            3.11280666445875        1.24389182538259        0.11950054042165
N            2.26998357166257        0.09559122584228        0.03745184947037
C            2.59594026259103       -1.31786841278210        0.00431058679420
N            1.35630190839412       -1.98795479286358       -0.01683179628491
C            0.35702814695075       -1.10757652402797        0.00399455321037
C            0.86143403635320        0.17941203411574        0.03645064404490
C            0.07859209639144        1.29693967340022        0.01972456682447
O            0.44218221913833        2.50218020381987        0.03769070124299
N           -1.35295337738042        1.00571443401120       -0.04226910213392
C           -2.09757848301188        2.28758826988997       -0.09972523832539
C           -1.90141881059976       -0.22894373730175       -0.04224502271809
O           -3.11509552453462       -0.38626638576443       -0.07696235804325
N           -1.00816041381831       -1.35059624168174       -0.01409502764086
C           -1.37218009952042       -2.76039429861861       -0.03883867320631
H            3.70345137551721        1.27901662860768        1.04979936588325
H            3.80587702393560        1.31150503295323       -0.74536303363501
H            2.42643890574873        2.11218747141423        0.10300292309818
H            3.55783754770153       -1.76201774999299       -0.01853457000133
H           -1.25437347481752        3.02381677663695       -0.14922058575510
H           -2.76984111479748        2.43145548528340       -0.95803717490938
H           -2.69076470025080        2.53148719672529        0.80650002597261
H           -0.96463022980675       -3.28946879599986        0.83914018065966
H           -0.93984974093125       -3.26203832299143       -0.92100831181463
H           -2.46156834402348       -2.87120733802993       -0.05559076385788
H            1.27275522258554       -2.98742505585628       -0.05181038314931
25
 energy: 15.149729065970 xtb: 6.6.1 (8d0f1dd)
C            3.06270174341873        1.25679575399915        0.12999856730096
N            2.25280087044736        0.08426420751847        0.03952511046478
C            2.58409670228354       -1.33286307113363       -0.00525792307685
N            1.34318637832742       -2.00378726988783       -0.02603462496769
C            0.34208844683698       -1.12479891610027        0.00689673324021
C            0.84608556676189        0.15944897236919        0.04501409785327
C            0.07483957180209        1.28103560066836        0.03266552041092
O            0.45900680295175        2.48118634211840        0.05857795883915
N           -1.36357346628988        1.00990470439374       -0.04226089490424
C           -2.06067098296876        2.33038278502197       -0.11803198002845
C           -1.91669036598538       -0.22809946550692       -0.03942294240838
O           -3.13079363678076       -0.37809332551371       -0.07662198100414
N           -1.02447041446558       -1.36349410228063       -0.00703213241357
C           -1.34289313785122       -2.79168742292305       -0.03025431113335
H            3.68502438489722        1.27973518995235        1.04097490033014
H            3.72276432438172        1.38409800767131       -0.76295121401551
H            2.33952089048620        2.10437327212756        0.16679303791116
H            3.54479946960705       -1.77849405809145       -0.04409961347882
H           -1.18266853272756        3.02760429012183       -0.19705995600277
H           -2.74491530850025        2.50293845228391       -0.96177336429409
H           -2.62009531778429        2.64256249679338        0.79729050726631
H           -0.90687486555965       -3.30715368908959        0.84575617694536
H           -0.88469457135884       -3.28016759364661       -0.90988416751790
H           -2.42802631413291       -2.96335664098337       -0.04613643300081
H            1.26166643013921       -3.00330591771056       -0.06963717616848
25
 energy: 22.329736521827 xtb: 6.6.1 (8d0f1dd)
C            3.01133186800561        1.26714824597716        0.14160431055628
N            2.23434324229493        0.07196644954471        0.04204177135707
C            2.57095294220294       -1.34513438664522       -0.01554786568989
N            1.33183540494833       -2.01928834043567       -0.03763795405238
C            0.32709753231518       -1.14265774829858        0.00894649096012
C            0.83080491018763        0.13902000016376        0.05432559571704
C            0.07074093220807        1.26693942248809        0.04952713065032
O            0.47662895423740        2.46122110419361        0.08715699945137
N           -1.37070532331641        1.01728706823630       -0.04138597211833
C           -2.02421459731597        2.37283455287803       -0.13891221266704
C           -1.92933051108916       -0.22431884117088       -0.03640297767383
O           -3.14359405883175       -0.36373163547205       -0.07567449860859
N           -1.03999276607991       -1.37665402555993       -0.00001462910757
C           -1.31370432570315       -2.82244123152355       -0.02019726230318
H            3.66395219745266        1.27827137582931        1.03160962506189
H            3.63412583563329        1.44961342863837       -0.77593790071748
H            2.25695329105626        2.09220133081918        0.22947807386576
H            3.53116936945972       -1.79059895307719       -0.07445152300282
H           -1.12167269973918        3.03546669154017       -0.24989458936710
H           -2.72178078784522        2.56749785820986       -0.96647627993717
H           -2.54471483166601        2.74636213502079        0.78392757231562
H           -0.84987771238236       -3.32206963997843        0.85427924920748
H           -0.83219898071295       -3.29701631844765       -0.89764386095021
H           -2.39122454059249       -3.05376591227339       -0.03397284363537
H            1.25528932320860       -3.01912402848483       -0.09171255316480
25
 energy: 30.211901402351 xtb: 6.6.1 (8d0f1dd)
C            2.91975877708537        1.27605626881068        0.15052427557734
N            2.20127264094823        0.02427201320080        0.04541200754172
C            2.52401679431440       -1.34002501259147       -0.02278154711396
N            1.33453393997749       -2.04362841480546       -0.04946000662835
C            0.29371260158560       -1.17416413655643        0.01261463141932
C            0.82611769985850        0.08863129915275        0.06446132458943
C            0.05475814712463        1.27427975129781        0.06680543253486
O            0.56028528530040        2.41319849747353        0.11395225021080
N           -1.36420054649493        1.06227552803232       -0.03622863963221
C           -1.97385043626499        2.44440282910244       -0.16126539206284
C           -1.94612965920222       -0.21226867380118       -0.03380887264133
O           -3.14314264877586       -0.34726885721254       -0.07215863880198
N           -1.05091315641398       -1.39627520070437        0.00931071491767
C           -1.27016186133344       -2.86692317404670       -0.00962850393780
H            3.61513996364400        1.26101057637420        1.00096259117122
H            3.47798184734013        1.54915897357408       -0.78897181932422
H            2.13162807905432        2.06032906798534        0.32241683014703
H            3.49245293526929       -1.79041673797667       -0.10678297403226
H           -1.10311605494739        3.05931298152370       -0.31599231071418
H           -2.66661805298042        2.64847424873639       -0.96441040642322
H           -2.40881531106473        2.87825499702145        0.75853239933310
H           -0.77580021321960       -3.33393579816149        0.86556152671118
H           -0.76100931872071       -3.30890625607464       -0.88627577164367
H           -2.32581018167109       -3.18870858068973       -0.02300707930692
H            1.27012339752305       -3.04810758749285       -0.11274812574357
25
 energy: 48.761800321186 xtb: 6.6.1 (8d0f1dd)
C            2.85821758830847        1.28885553557245        0.17147093153324
N            2.17745361255196        0.01716100648633        0.04880027150291
C            2.51102354465172       -1.35167826909018       -0.03712842737608
N            1.32009335879094       -2.06042780967705       -0.06390362983509
C            0.27604500419454       -1.19902574195591        0.01476982909375
C            0.79784589785685        0.06819161677256        0.07725222561761
C            0.03404398439585        1.24121350443815        0.08623034564510
O            0.53088769786896        2.38991757899476        0.15019979846299
N           -1.38785825166527        1.05702014614577       -0.03561376432343
C           -1.92212344113786        2.50106357425657       -0.18770949522465
C           -1.96842590476795       -0.21619708113430       -0.02956255197112
O           -3.16808193090468       -0.33364632654126       -0.07296587114308
N           -1.07467479631215       -1.42137592565188        0.01939158163880
C           -1.23128375620207       -2.91386715742158        0.00182704382785
H            3.60552857459641        1.25547933269807        0.98334994139726
H            3.34424211534878        1.64657562953993       -0.80811060529759
H            2.03547195303532        2.03807134084790        0.42589076499463
H            3.47515747976141       -1.80165108201278       -0.14527185881269
H           -0.96496526788699        3.04455320428267       -0.41501422697862
H           -2.65332011565544        2.75342282324949       -0.96077367429698
H           -2.28655777965594        3.05547969129041        0.75120628411997
H           -0.70263970619124       -3.35910728886442        0.87496728676219
H           -0.69274848406981       -3.33355331459497       -0.87369266603596
H           -2.26936627904938       -3.31198898801377       -0.00915575607186
H            1.26824957007359       -3.06545739744498       -0.13941988108200
25
 energy: 64.771483442067 xtb: 6.6.1 (8d0f1dd)
C            2.86223291492146        1.27638125692111        0.18121559704536
N            2.16910072348923        0.01729763822950        0.04463564008916
C            2.48840883951079       -1.30752818345018       -0.04077802267849
N            1.33451179621797       -2.04679262507642       -0.05463029938294
C            0.26510159251255       -1.20771480644155        0.01348489979920
C            0.77994107771041        0.07387506173275        0.07452175011540
C           -0.03896267801954        1.21122462748275        0.06617208941100
O            0.37925462980407        2.37807554962741        0.12402862236243
N           -1.42661608666901        1.04110742008454       -0.03204014893130
C           -1.89836888255816        2.53398999916679       -0.17041215458768
C           -1.99443632829819       -0.24146401455757       -0.03124317711781
O           -3.18485254176362       -0.35597218035947       -0.07980972658197
N           -1.07896644026370       -1.45455023664240        0.02469622259267
C           -1.21734820535383       -2.95008587582871       -0.00660299749455
H            3.64303356202124        1.23862664732367        0.93677885600499
H            3.24450897386485        1.68442891978124       -0.79383581375024
H            2.08655428958406        1.98951206062557        0.49328711850845
H            3.44502656657641       -1.77250743599607       -0.12463871049451
H           -0.83091597630388        2.97593652917485       -0.48042225549690
H           -2.66795070894390        2.86079840847447       -0.91547518173574
H           -2.16779842939468        3.18115137027023        0.75594841290633
H           -0.69412380443202       -3.37714689772847        0.86705442009067
H           -0.67617990501769       -3.33738188755281       -0.88699828305737
H           -2.21277205740949       -3.36486761191364       -0.02279152242515
H            1.30383174615065       -3.05736513117565       -0.11511143904382
25
 energy: 72.269166366017 xtb: 6.6.1 (8d0f1dd)
C            2.79752711887203        1.28053203577409        0.18730890337439
N            2.13780687986350       -0.00159992197444        0.04581170886737
C            2.46471978226913       -1.31546586798460       -0.06522532053120
N            1.31663920465011       -2.06319622374798       -0.06951606930334
C            0.24128264558081       -1.22766498763598        0.01416257602836
C            0.75526248953967        0.04680989816954        0.08761892349450
C           -0.02403047550439        1.19500555826961        0.10352546595314
O            0.47022564842031        2.33662067799318        0.20017629678610
N           -1.42116816072424        1.07595136881178       -0.03072552757915
C           -1.85713079223592        2.60683470870609       -0.21063470091161
C           -2.00673944002803       -0.21827577010608       -0.02815795176527
O           -3.19994040179948       -0.31671204142878       -0.07951458465389
N           -1.09939513746932       -1.46755040529188        0.03496157221783
C           -1.17682582970852       -2.99019400139410        0.00955419097462
H            3.61888958496364        1.23356642535787        0.90521549190104
H            3.12362914313404        1.73054875281271       -0.79618283226916
H            1.99674172543332        1.96615007070579        0.56478101029085
H            3.42380807376684       -1.77828740168563       -0.16350713499379
H           -0.87201905898814        3.03435026612600       -0.53201699069160
H           -2.64077075113664        2.93813449208658       -0.91916846486302
H           -2.06043088886747        3.25519839490643        0.69597150843315
H           -0.60656851892311       -3.39577420378252        0.87841446186496
H           -0.59861309716699       -3.36187391616052       -0.86348113213404
H           -2.16500226867780       -3.50061222130189       -0.00253269569688
H            1.29431719267256       -3.07346708505330       -0.13980480864625
25
 energy: 73.776649228474 xtb: 6.6.1 (8d0f1dd)
C            2.79143966990461        1.27366129690396        0.18772585985208
N            2.12237736093058        0.00633174962519        0.04810082396883
C            2.46882917417893       -1.30613441815383       -0.08801475507817
N            1.32027732616809       -2.06429070369625       -0.07208325518976
C            0.24025420655270       -1.23959907780946        0.01198012867228
C            0.73329682370456        0.04211066368637        0.09378509142789
C           -0.02610457703609        1.18795139050725        0.13345521277047
O            0.48876391543337        2.32745844067681        0.28432512434757
N           -1.42986876310443        1.08826800022593       -0.03288739211197
C           -1.86216929245042        2.63333053427156       -0.23958137006652
C           -2.01094447270402       -0.20859419703031       -0.03182346008569
O           -3.20998606704668       -0.29677821131402       -0.09022625181744
N           -1.10415380362564       -1.48580925399045        0.03904512788444
C           -1.16940469468859       -3.01032014915207        0.01112560094788
H            3.66760016411366        1.20875566658622        0.85753241666597
H            3.05003180621108        1.73493931220752       -0.80275015441889
H            2.00098203052650        1.94788766785641        0.63178897409296
H            3.43238726676211       -1.75473080649625       -0.15988701755721
H           -0.91128564349207        3.03486845721972       -0.62233291595406
H           -2.68710333339099        2.95279177464852       -0.89427972635225
H           -1.97277883173511        3.29841649622678        0.67806869480678
H           -0.60393653389070       -3.41206479459682        0.87856971039742
H           -0.59856532973792       -3.37782752104589       -0.86185610474998
H           -2.13584930963116       -3.51936539674024       -0.00005593755990
H            1.31812557598355       -3.07222831844466       -0.13269052874559
25
 energy: 77.395937682995 xtb: 6.6.1 (8d0f1dd)
C            2.78672922641109        1.25520312891504        0.18581868971654
N            2.09648643102811        0.01323748281809        0.04751217273562
C            2.46817436953168       -1.29203347691586       -0.12846537069936
N            1.32298179009298       -2.06614558966488       -0.08513712942892
C            0.23529481319285       -1.25451187521206        0.00718298066416
C            0.70228163100287        0.03782250563767        0.09953311071167
C           -0.04521932657961        1.19556183062493        0.19664005300311
O            0.46405868801668        2.33572483744250        0.42536437651791
N           -1.44057149147206        1.10704390005533       -0.02523292877585
C           -1.85955063206603        2.67626138605649       -0.27550563171374
C           -2.02014749823943       -0.18605794519409       -0.03877735486903
O           -3.22372901087797       -0.25358903737312       -0.10734731127584
N           -1.11247779549795       -1.51243877858654        0.04514591404016
C           -1.15779470160831       -3.03805125143866        0.01698610106334
H            3.70532842349173        1.17480071290622        0.77746776668768
H            2.94494666514085        1.73449150522175       -0.78851844539411
H            2.03827167474271        1.90314307423735        0.70827127585191
H            3.44335236042364       -1.71968475568561       -0.15071753807929
H           -0.94634968648366        3.01712750652411       -0.77105790304528
H           -2.74697018557148        2.99159179687032       -0.84069857291288
H           -1.83183025754173        3.35273703960825        0.62385957153932
H           -0.58008603497608       -3.42621080469966        0.88221513054473
H           -0.58213256551078       -3.39613371451609       -0.85421185191497
H           -2.10131920325739       -3.58898770579952        0.01000573617832
H            1.35248698454315       -3.07187316966000       -0.13329894499816
25
 energy: 73.014207987477 xtb: 6.6.1 (8d0f1dd)
C            2.80234992050983        1.23407607314175        0.17949116005481
N            2.08046736567222        0.01877352521567        0.05144280625727
C            2.47708183956719       -1.27788811922220       -0.16357765504691
N            1.33430397227629       -2.06315940677381       -0.10290362042493
C            0.24094109720408       -1.26058953150263        0.00534669031943
C            0.68917676393390        0.03827656412558        0.11111036343092
C           -0.05661371453155        1.21491766236227        0.28467952997350
O            0.42740916093878        2.34732404744914        0.57399862730171
N           -1.42834674703368        1.11428744038505       -0.00568021085345
C           -1.86657091938679        2.67807732238590       -0.30974582201588
C           -2.01620571059054       -0.15650810398398       -0.04775112246508
O           -3.22079717358992       -0.20180274929544       -0.13395876751417
N           -1.10581427945572       -1.53429041447082        0.04518061831795
C           -1.16994856873231       -3.04146075987003        0.02041172874578
H            3.76197122230365        1.12411570080470        0.68621332994920
H            2.86088361768080        1.74340670973115       -0.79190923032897
H            2.10905917113031        1.86334087465359        0.78270845622914
H            3.47072859403352       -1.67200647434131       -0.11837236350043
H           -1.03058870353036        2.97007849455913       -0.94201270295627
H           -2.82815910320803        2.96743830916399       -0.76582239576887
H           -1.70475796566167        3.35009950949656        0.55386235398856
H           -0.60674307863043       -3.42334307337620        0.88811526496523
H           -0.61465563803695       -3.40415524080913       -0.85381996748652
H           -2.09158581641921       -3.57358269905464        0.02037717167064
H            1.39862936149243       -3.06639705860231       -0.14035034669559
25