25
 energy: 0.000000000000 xtb: 6.6.1 (8d0f1dd)
C            3.23720163006194        1.16630919979326        0.08434469647475
N            2.29877817382611        0.07527477071623        0.03981603040599
C            2.58028210190900       -1.21425402444508        0.03006176031096
N            1.43813958087363       -1.93419271955128        0.00098261760884
C            0.39035688448383       -1.05887472636071       -0.00790371836672
C            0.93510056364412        0.21347819449412        0.01709077491437
C            0.09450143893243        1.40504303904423       -0.00410947031874
O            0.49712751527797        2.54126714362870       -0.00342325688240
N           -1.25076640035757        1.06271879480407       -0.03085478223738
C           -2.21907211982101        2.15522099834493       -0.05001256985998
C           -1.81739487048744       -0.20012725993278       -0.04692818574614
O           -2.99983886758376       -0.37846417018721       -0.07008878229737
N           -0.92618586207120       -1.30210215599479       -0.03682761578324
C           -1.46982264913417       -2.64643102187190       -0.06029820460571
H            3.71247264356769        1.21471455160235        1.06488849150277
H            4.00791497605742        1.03430808813993       -0.67357694370751
H            2.69910007168542        2.09770118228144       -0.09130154882931
H            3.56654120610678       -1.63682992603973        0.04233140067262
H           -1.67107961066214        3.09322851271934       -0.02552706933167
H           -2.82428953597071        2.09428624779827       -0.95318082946668
H           -2.87644029173232        2.07745725625962        0.81450067533302
H           -1.17061996399332       -3.19584890659852        0.83242232437030
H           -1.14560257411436       -3.17511610292205       -0.95688275822323
H           -2.55549792440841       -2.55659984320617       -0.07459039797972
H            1.38130855184625       -2.94313852034425       -0.01389874181052
25
 energy: -5.371361926596 xtb: 6.6.1 (8d0f1dd)
C            3.24091605244531        1.17788713327243        0.08700322798029
N            2.30661412373964        0.09474905990375        0.03806754037260
C            2.59940995240678       -1.23302223211356        0.02965721432295
N            1.42785697561830       -1.94164472866666        0.00056560064819
C            0.39573054930895       -1.05827817799465       -0.00784759846159
C            0.92880013975265        0.22064230300777        0.01600337000071
C            0.10034310261433        1.39404058281913       -0.00435479542541
O            0.49696586729947        2.55975963991165       -0.00344284002401
N           -1.26154006277003        1.05033127409385       -0.03120999185691
C           -2.21871086785395        2.15115578434051       -0.05134481571322
C           -1.82451560359303       -0.20090004160609       -0.04688293058073
O           -3.02149942444643       -0.37912439619275       -0.07062693023288
N           -0.93511688121040       -1.30299271786752       -0.03650330909639
C           -1.46943679442874       -2.64688719714598       -0.05991388174825
H            3.72018032191720        1.22369487406182        1.06852902527908
H            4.00803555628303        1.04488101488253       -0.67717690603907
H            2.69235789237610        2.10175663006225       -0.08703459228769
H            3.57815710985371       -1.65819204580637        0.04170226356366
H           -1.65351348346063        3.07943591566993       -0.02661110793936
H           -2.82736480472788        2.10400819601643       -0.95391815040794
H           -2.87535790776507        2.08844755442599        0.81474062536312
H           -1.16427972618637       -3.19818218460122        0.83174984235725
H           -1.13920388908662       -3.17724557969416       -0.95543550772690
H           -2.55486156659097       -2.55983610738987       -0.07434892132751
H            1.36224803644083       -2.94545595121716       -0.01433253487271
25
 energy: -6.516364371691 xtb: 6.6.1 (8d0f1dd)
C            3.24169635792124        1.18591352238546        0.09003787662781
N            2.31026704340982        0.10508409986592        0.03522390406822
C            2.60822080453248       -1.24736576374306        0.02893498031986
N            1.41516534169036       -1.94254959544894        0.00029071719623
C            0.39724425535163       -1.05720885657019       -0.00777714477677
C            0.92229385560891        0.22550962708036        0.01473355318880
C            0.10405865043748        1.37918847343271       -0.00505706203181
O            0.48396283815818        2.55992300921326       -0.00374715182443
N           -1.27430048178363        1.03891394450758       -0.03239554498512
C           -2.21461410895400        2.15171901249514       -0.05309071043111
C           -1.82968620674195       -0.20315888734766       -0.04715830356670
O           -3.03126096838452       -0.38351776499375       -0.07114716767382
N           -0.94326317792589       -1.30278064281412       -0.03575574049104
C           -1.46562620139828       -2.64859656650719       -0.05902076019090
H            3.73036902076009        1.23453520727975        1.06894782981040
H            4.00612844354983        1.06560380557568       -0.68093375866178
H            2.68383827004700        2.10602447956878       -0.07591982553896
H            3.58094205502240       -1.67738372626275        0.04019589288096
H           -1.62232589572194        3.06424425198420       -0.03030435237902
H           -2.82784204295058        2.12067725097986       -0.95401651877839
H           -2.87027931750321        2.10892145555404        0.81526972836268
H           -1.15429427283833       -3.20115335518234        0.83133671132053
H           -1.12901148393715       -3.18002274089745       -0.95315544025755
H           -2.55146060576163       -2.56912101402179       -0.07375745236415
H            1.34199249534789       -2.94437062396147       -0.01470036367665
25
 energy: -6.518611401240 xtb: 6.6.1 (8d0f1dd)
C            3.23758392083983        1.18998258848907        0.09249295791423
N            2.31017429332623        0.10530914663693        0.03286568104102
C            2.60726951835323       -1.25514563087330        0.02776393515664
N            1.40764199159723       -1.94272557370689        0.00003632254795
C            0.39529623444997       -1.05825561889388       -0.00761841890770
C            0.91878940911479        0.22573891062347        0.01414996579871
C            0.10377370102394        1.37226529530584       -0.00574900520749
O            0.47061848371635        2.55679999538681       -0.00413204566963
N           -1.28333539924778        1.03386803015392       -0.03391865370635
C           -2.20806821221083        2.15760377726723       -0.05510325945055
C           -1.83450136903653       -0.20669695764211       -0.04747044395909
O           -3.03584525146021       -0.39083780364475       -0.07164038666564
N           -0.94746768806535       -1.30382404325905       -0.03472442355092
C           -1.45959232930346       -2.65291883066418       -0.05773924443820
H            3.73597433493194        1.23840744727405        1.06724902521923
H            3.99850510789880        1.08793075984940       -0.68553015116477
H            2.67227518741155        2.10896203845814       -0.06027314830019
H            3.57732314078278       -1.68999106842299        0.03762853348956
H           -1.59171429753763        3.05540886168240       -0.03670487435928
H           -2.82491546742727        2.13864589352787       -0.95392680344358
H           -2.86119176873119        2.13323848890760        0.81614780213921
H           -1.14299179363207       -3.20394215157122        0.83220789674092
H           -1.11745968551385       -3.18292346261897       -0.95113544022122
H           -2.54610845909984       -2.58325558996622       -0.07276798200780
H            1.33018106575558       -2.94461590012710       -0.01507394284776
25
 energy: -5.631335570519 xtb: 6.6.1 (8d0f1dd)
C            3.21971394455639        1.19924451534530        0.09989029892493
N            2.30727152722471        0.10006392855922        0.02685401814466
C            2.59959897313938       -1.27153893493582        0.02334378396819
N            1.39167653593477       -1.94485335233810       -0.00124783321314
C            0.38736390839790       -1.06285880796195       -0.00713075023869
C            0.91094049192841        0.22241294699256        0.01317096644866
C            0.10130932905095        1.35885852866469       -0.00748280252502
O            0.44130776252239        2.54796459874236       -0.00487354292256
N           -1.30349819467350        1.02415290262758       -0.03841398657296
C           -2.18684275446913        2.17825731453350       -0.06200574883483
C           -1.84844299969317       -0.21615943163265       -0.04816547897490
O           -3.04776525694481       -0.40987905121438       -0.07294446476705
N           -0.95713181959970       -1.30812917430625       -0.03135092803356
C           -1.44079124760738       -2.66785870999109       -0.05331137627453
H            3.74626761189586        1.23775117656516        1.06175591591795
H            3.96605991727738        1.15220944054904       -0.70173850993177
H            2.63059975853280        2.11402257245829       -0.00811175697590
H            3.56405865347398       -1.71847807095665        0.02828772120526
H           -1.51043734320719        3.03811188572774       -0.05986562938272
H           -2.81414812105438        2.18934376789035       -0.95386727648206
H           -2.82989045857211        2.20668489447193        0.81875024004377
H           -1.10857672650141       -3.21193149612135        0.83626506701242
H           -1.08244652581961       -3.19185345571889       -0.94497394307607
H           -2.52916341023115       -2.62923020960863       -0.06911143020993
H            1.30518111237478       -2.94727917616993       -0.01668865710290
25
 energy: -1.611277073169 xtb: 6.6.1 (8d0f1dd)
C            3.18041342970095        1.21426445743875        0.11489463084833
N            2.29934402928868        0.08651468542237        0.01656614412877
C            2.58300182347670       -1.29626403057966        0.01355346082127
N            1.36752950008217       -1.95126892406320       -0.00501624202092
C            0.37118159217127       -1.07263555764195       -0.00645391691187
C            0.89806570143458        0.21242957041061        0.01184329510483
C            0.09787965737220        1.33901485129042       -0.00998605250611
O            0.40577023032589        2.53099752606322       -0.00488974608444
N           -1.33350232748345        1.01187622887070       -0.04647103589274
C           -2.14677065221958        2.21848402556336       -0.07685783608953
C           -1.87308992338094       -0.23010070829254       -0.04904187671734
O           -3.06836446468939       -0.43863304174867       -0.07498902052383
N           -0.97342086347968       -1.31654144891279       -0.02462717473367
C           -1.40567861011770       -2.69645327529575       -0.04395045567916
H            3.76103396969997        1.22291081630826        1.05054390268090
H            3.89186778809376        1.27068787883016       -0.73408575061951
H            2.54461125866280        2.11806900628200        0.09800342768181
H            3.53896838088574       -1.76240213977112        0.00806279884096
H           -1.37800040903600        3.01546473867764       -0.10947399481979
H           -2.79355281745061        2.27675009999747       -0.95408701325528
H           -2.76546539312711        2.34184808913080        0.82250946567354
H           -1.04389918132077       -3.22556298529502        0.84551226823055
H           -1.01710811590730       -3.20819810639552       -0.93246084298573
H           -2.49660774888937       -2.71776174515644       -0.06091615889542
H            1.26800781384332       -2.95446140896108       -0.02114838012836
25
 energy: 3.047355174810 xtb: 6.6.1 (8d0f1dd)
C            3.14003681914921        1.22469517113445        0.12976941921326
N            2.29011864640981        0.07048487476676        0.00796912651963
C            2.56599325849695       -1.31310599204974        0.00354797320111
N            1.35118761388668       -1.95926746215313       -0.01045507614864
C            0.35569152983347       -1.08251947676819       -0.00666397384259
C            0.88882517545617        0.19962030308937        0.01039288151747
C            0.09881112439043        1.32706435562251       -0.01072924420179
O            0.40054917948980        2.51402996470900       -0.00109539383146
N           -1.35244173600316        1.01023195094238       -0.05302514426466
C           -2.11362361884860        2.25513785236026       -0.09245894870161
C           -1.89223513111885       -0.23630766173027       -0.04952622427013
O           -3.08324356372825       -0.45568617612725       -0.07618357936104
N           -0.98610030744901       -1.32316747090982       -0.01832564196410
C           -1.37451527099522       -2.72086299276520       -0.03423473334292
H            3.76969900378195        1.19996227193958        1.03776139082772
H            3.81172744500105        1.37032600975083       -0.75845164030408
H            2.46628227106685        2.11379639937822        0.19648728051506
H            3.51614122253691       -1.79331447268390       -0.01358326810238
H           -1.29439496047126        3.00708037938095       -0.15870061769769
H           -2.77666340594245        2.34378535048944       -0.95432684789182
H           -2.70143075658131        2.45273903409525        0.82247698299282
H           -0.98638708566411       -3.23449327290666        0.85551324185762
H           -0.96008588212814       -3.22065661045092       -0.91998589412645
H           -2.46548648692542       -2.79749013563749       -0.05149291341431
H            1.24375958429257       -2.96305359130441       -0.02764525903180
25
 energy: 5.848684494521 xtb: 6.6.1 (8d0f1dd)
C            3.08873233670437        1.22839206680021        0.14602342241375
N            2.27685740876205        0.04398259989519       -0.00050533380784
C            2.54151747975010       -1.31522943682356       -0.00618192214715
N            1.34849977144633       -1.97091982983424       -0.01867453954573
C            0.33660189751767       -1.09473500595380       -0.00882808442045
C            0.88598062138053        0.17808688334098        0.00724226711658
C            0.10482525170388        1.32978240640860       -0.00883637604854
O            0.44539306591354        2.49439593633475        0.01134057866791
N           -1.35594561665194        1.02760515304612       -0.05828620696728
C           -2.08518285743049        2.29409612003806       -0.11120626921436
C           -1.90766011695393       -0.23176703858993       -0.05025526484987
O           -3.09138559751412       -0.45895090510941       -0.07664128486002
N           -0.99375677971359       -1.32884988794822       -0.01175979086335
C           -1.34343438093399       -2.74406982689132       -0.02274794885030
H            3.76630792648984        1.15702949316328        1.01733146508794
H            3.70348990045459        1.45452859459725       -0.77142039348428
H            2.38768271524263        2.09176898849302        0.29749143069129
H            3.48994693816458       -1.80457551029236       -0.04014950332749
H           -1.27757077923633        3.02034787540101       -0.21633347573437
H           -2.76180555261268        2.39184502144700       -0.95285328057790
H           -2.62221587480318        2.54618942020253        0.81649585645327
H           -0.93048328536245       -3.23705744822313        0.86846296858261
H           -0.90638089007714       -3.22839703734200       -0.90649863328714
H           -2.42908988895085       -2.87908354121137       -0.03902067114108
H            1.24129097464662       -2.97538648877665       -0.03715511373904
25
 energy: 9.563644431791 xtb: 6.6.1 (8d0f1dd)
C            3.04024949124770        1.23254409988912        0.16785557912262
N            2.25987460728334        0.03211795193672       -0.00724255602691
C            2.52430609087324       -1.30918648614239       -0.01824578988842
N            1.34514071123782       -1.98197074460890       -0.03202782210284
C            0.31967824964106       -1.10538031558476       -0.01537153310882
C            0.87501755662515        0.16166148382252        0.00144426055978
C            0.10081762906921        1.32470411673485       -0.00481814897184
O            0.47838671566650        2.48542141958195        0.03557852767973
N           -1.35759447853812        1.03431441820680       -0.06131651258730
C           -2.05533383789384        2.32593744449514       -0.12999830651365
C           -1.92328101770566       -0.22738214487265       -0.04989208203734
O           -3.10559783117675       -0.45172369107965       -0.07637023966124
N           -1.00606042389464       -1.33803339341224       -0.00685509440885
C           -1.31749062714367       -2.76728981888877       -0.01072957368339
H            3.75860834425775        1.11807062494284        0.99791375221474
H            3.58986311897763        1.51736967242796       -0.76588526799755
H            2.32501006732230        2.06077015705902        0.39165045748743
H            3.47168557659807       -1.80047421040581       -0.07405247653657
H           -1.23173292825646        3.02491966857289       -0.29831241383485
H           -2.76355455645497        2.42665167155980       -0.94479143600903
H           -2.53313060078650        2.64284571910088        0.81638977593823
H           -0.87611715340556       -3.23733017900423        0.88131256059229
H           -0.85727740684807       -3.23558756446844       -0.89226255422140
H           -2.39311978064082       -2.95854429840699       -0.02354249342106
H            1.24386715188131       -2.98539699928365       -0.05339671643660
25
 energy: 10.837558934489 xtb: 6.6.1 (8d0f1dd)
C            3.00528882314609        1.22649217896380        0.19666645733477
N            2.23645817935165        0.03993551457802       -0.01028075885785
C            2.51889472342186       -1.27795759880961       -0.03253874913910
N            1.35394651812118       -1.99439290447358       -0.05521181584484
C            0.30880429956544       -1.11298582809532       -0.03246707321832
C            0.85774356574880        0.15036092796479       -0.00873393654901
C            0.07773082724395        1.32080439755285        0.01009693462444
O            0.52717296062339        2.48855495709161        0.08781156992501
N           -1.33682146470232        1.04373893841196       -0.05854414402243
C           -2.03275230800313        2.34109696435348       -0.15285650104549
C           -1.92873636414337       -0.20922814027544       -0.04859508764658
O           -3.11842385429069       -0.40471931222562       -0.07529798195404
N           -1.01903901915079       -1.35082931972318       -0.00586057214578
C           -1.30897392467017       -2.78259981402439        0.00403951748174
H            3.74791030930241        1.07057261269489        0.96937512579183
H            3.46274414180112        1.53112557470719       -0.72441674119692
H            2.30781384175242        1.99683433167792        0.47996839019828
H            3.47100933020370       -1.75279297827109       -0.12227421586159
H           -1.23285887373169        3.03616596973515       -0.41818976672612
H           -2.80034158434977        2.40593181356771       -0.92136573872558
H           -2.41947289768263        2.69427651038832        0.80494429004635
H           -0.84425450492586       -3.22503160746552        0.89615724264209
H           -0.83755000603051       -3.23694289129848       -0.87513750450010
H           -2.35992967356128       -3.01483552411459        0.00065392515024
H            1.27585162289619       -2.99454617073886       -0.08090896961381
25
 energy: 18.194873787737 xtb: 6.6.1 (8d0f1dd)
C            2.96386576437514        1.22871758909970        0.23104938446205
N            2.21771501922954        0.03657642498454       -0.01744796648959
C            2.51110994819539       -1.28394061824973       -0.05235024318672
N            1.34022794818737       -2.00894743574256       -0.07539361751136
C            0.29534568383864       -1.12481544378411       -0.04350587706033
C            0.83795366994514        0.13664894279350       -0.01109342731939
C            0.06480547475409        1.30136573422758        0.02526765254775
O            0.54015143982402        2.47475241170794        0.12256911350207
N           -1.33907453520103        1.04502281198988       -0.06333721610476
C           -1.99653464080181        2.37272989664777       -0.18791973569321
C           -1.94195463389696       -0.19912905160321       -0.04826372161867
O           -3.13626729344627       -0.37942581834506       -0.07857009584507
N           -1.03888256150282       -1.36094180164568       -0.00063807876247
C           -1.28365426750038       -2.80501327295414        0.02341140491999
H            3.78653813975392        1.00637473663340        0.93682306780463
H            3.31671820167345        1.65729050741067       -0.74708149433082
H            2.22752035247325        1.95572728816049        0.66647953356621
H            3.46036225651517       -1.75668613081728       -0.17345508595069
H           -1.16868939924503        3.03108388531587       -0.55427769615235
H           -2.82415187755187        2.42642788070482       -0.90629170783581
H           -2.29638750510986        2.81717032696650        0.79425044076900
H           -0.78431397505013       -3.21990470397350        0.91559179798929
H           -0.78639351486655       -3.24781788294346       -0.85058854521823
H           -2.32268470345033       -3.10654147706223        0.02676081041908
H            1.26888967679381       -3.00769619734974       -0.10495480075344
25
 energy: 18.354263475995 xtb: 6.6.1 (8d0f1dd)
C            2.96474117893787        1.22207792083044        0.25741077571656
N            2.20754709463054        0.04411102821109       -0.01993862707357
C            2.51726613759142       -1.29360394517117       -0.07018234418762
N            1.33040737245504       -2.01116646243600       -0.09920697856168
C            0.29696998711624       -1.12645845174263       -0.05671092365719
C            0.82640224629383        0.13864847121963       -0.00879615592524
C            0.04817644170474        1.29180703410211        0.05276908094126
O            0.50527008276879        2.46977473030677        0.14278391370968
N           -1.33255944946163        1.04561488300514       -0.06369104995454
C           -1.98355783115551        2.37527979988049       -0.21603470477813
C           -1.93718316325337       -0.18677501012858       -0.04681437380908
O           -3.13773041888509       -0.34418160150030       -0.07971725088375
N           -1.04678366277093       -1.36084127434628       -0.00189481348943
C           -1.28137242711848       -2.80428720039969        0.04065499729587
H            3.82363311495860        0.98035705687891        0.91463713052870
H            3.26863439185087        1.71118514981073       -0.72507244017961
H            2.24105578097083        1.92834804618846        0.76681962373364
H            3.46764852577814       -1.75309699690854       -0.22125242314318
H           -1.17393941782381        3.02338636933929       -0.63683996659490
H           -2.85375819447036        2.39708207547680       -0.88581291854326
H           -2.23165180959120        2.84684274777982        0.76286238616286
H           -0.77026355075612       -3.20750190718989        0.93198974988557
H           -0.78715271705410       -3.25526412320369       -0.83049047929604
H           -2.31735602504700       -3.13086965300116        0.05639451502699
H            1.26777098026653       -3.01144008482974       -0.13683282677679
25
 energy: 17.555049096620 xtb: 6.6.1 (8d0f1dd)
C            2.95664348449944        1.21685479889896        0.29641874577697
N            2.19193102408539        0.04946426842921       -0.02438204845437
C            2.52021846688133       -1.30686383144116       -0.09262908739086
N            1.31669025148749       -2.00855323720593       -0.14284569177272
C            0.29683654750922       -1.13028357776443       -0.08037796696226
C            0.81481677713861        0.13778153392486       -0.00746552384066
C            0.03318551411840        1.28545004060149        0.09681910794989
O            0.46134398816515        2.45442121974238        0.19816899742062
N           -1.32486469131554        1.05230468474336       -0.06772383175879
C           -1.96938823384298        2.37761407968179       -0.25756929174220
C           -1.93086302503430       -0.17416174253441       -0.04881539623528
O           -3.13552012331898       -0.30428520635064       -0.07825461237178
N           -1.05490687948375       -1.35879675347153       -0.00904268119198
C           -1.27635991333308       -2.80348687231234        0.06902860325375
H            3.84436873775206        0.96853316129109        0.88155118891838
H            3.21792063561088        1.76022195951927       -0.63871707222706
H            2.28396689726622        1.88907044107716        0.86458429770789
H            3.47340478044205       -1.74282954565766       -0.30683048283622
H           -1.19170353452021        3.00015133224232       -0.76922133189678
H           -2.90307385508430        2.34943053552876       -0.84164293075537
H           -2.13019564348719        2.89915651282038        0.71770060658799
H           -0.74977035289701       -3.18768778458143        0.96017685226905
H           -0.79527164029777       -3.27067019932351       -0.80061050582737
H           -2.30683619748397       -3.15090269159242        0.10783150682083
H            1.26964165307869       -3.01290452409361       -0.19911755529455
25
 energy: 16.855843766438 xtb: 6.6.1 (8d0f1dd)
C            2.95224672356211        1.20851794052632        0.33399065236306
N            2.18486637974943        0.05193766020065       -0.02848176234948
C            2.52243368051970       -1.31407427436486       -0.10759307026733
N            1.30849512624493       -2.00156953699345       -0.19198510114429
C            0.29550379138502       -1.13155430751944       -0.10532145291591
C            0.81273537650546        0.13633329476887       -0.00203472286290
C            0.03005625710983        1.28763249684803        0.14509506243556
O            0.43483685567370        2.44434189238244        0.29541787091620
N           -1.31591357438809        1.06156652605504       -0.07937639516048
C           -1.95929231176581        2.37330591268671       -0.30874502765696
C           -1.92600546122869       -0.16705635708809       -0.05923172339054
O           -3.13191404683412       -0.27596226184730       -0.08139818717084
N           -1.06009093600274       -1.35442131245834       -0.01974212782238
C           -1.27760894165390       -2.79737736469278        0.10791972515905
H            3.89768754841131        0.92911452311631        0.82411847816163
H            3.13891952883942        1.82905984291134       -0.56810300420419
H            2.32313270823956        1.83417698207245        1.00651478178501
H            3.47358761776536       -1.72156656258287       -0.40890000523021
H           -1.24409145523209        2.96405833335875       -0.90116329905166
H           -2.93546370822372        2.30356465895334       -0.80080158235741
H           -2.03593722970200        2.92393463102069        0.62888770248920
H           -0.73890113815617       -3.15422136406414        1.00148368644086
H           -0.81944110341344       -3.28886963265240       -0.75932506754782
H           -2.29658152162412       -3.14337752821322        0.17515090575527
H            1.27895450215487       -3.00846559025205       -0.26934244022638
25
 energy: 14.529209743987 xtb: 6.6.1 (8d0f1dd)
C            2.95724574005532        1.19854805283349        0.37021013836449
N            2.19030790043127        0.05328218435931       -0.03098134375025
C            2.52335292821595       -1.31702042127151       -0.10195777044612
N            1.30532834303086       -1.98704069235788       -0.24713472645957
C            0.29229872704087       -1.12512738532222       -0.13264773224873
C            0.82059297468405        0.13903151573425        0.00298183269605
C            0.03666161071230        1.29525762761029        0.18153561120785
O            0.40864489411541        2.43907209213180        0.42393048436446
N           -1.31723134005800        1.06092114017218       -0.09809192371913
C           -1.95823976439830        2.35633438397694       -0.35379198027513
C           -1.92841155681919       -0.17704784105992       -0.07166060814183
O           -3.13120327944215       -0.28110568149356       -0.08573132585905
N           -1.06101097915769       -1.34636432906141       -0.03907920870007
C           -1.28279332614736       -2.78504238973312        0.14234256286018
H            3.92961193561788        0.90989630692736        0.76169052500467
H            3.07180023624248        1.88840207133094       -0.47723237591247
H            2.38313642014212        1.76016821836627        1.12167986235571
H            3.45998202403500       -1.69226486579132       -0.50990794253074
H           -1.29732111715718        2.89246848938715       -1.06798679406558
H           -2.97614534970975        2.25496059481175       -0.73495389919341
H           -1.92484674683976        2.98579795162154        0.56064957955891
H           -0.72977657169768       -3.11385301541508        1.03549745919579
H           -0.85004231103240       -3.30597747095676       -0.72230183441019
H           -2.29826371132118       -3.12036941394666        0.24481795176776
H            1.28853698739292       -2.99389852068188       -0.34484264551657
25