25
 energy: 0.000000000000 xtb: 6.6.1 (8d0f1dd)
C            3.23720163006194        1.16630919979326        0.08434469647475
N            2.29877817382611        0.07527477071623        0.03981603040599
C            2.58028210190900       -1.21425402444508        0.03006176031096
N            1.43813958087363       -1.93419271955128        0.00098261760884
C            0.39035688448383       -1.05887472636071       -0.00790371836672
C            0.93510056364412        0.21347819449412        0.01709077491437
C            0.09450143893243        1.40504303904423       -0.00410947031874
O            0.49712751527797        2.54126714362870       -0.00342325688240
N           -1.25076640035757        1.06271879480407       -0.03085478223738
C           -2.21907211982101        2.15522099834493       -0.05001256985998
C           -1.81739487048744       -0.20012725993278       -0.04692818574614
O           -2.99983886758376       -0.37846417018721       -0.07008878229737
N           -0.92618586207120       -1.30210215599479       -0.03682761578324
C           -1.46982264913417       -2.64643102187190       -0.06029820460571
H            3.71247264356769        1.21471455160235        1.06488849150277
H            4.00791497605742        1.03430808813993       -0.67357694370751
H            2.69910007168542        2.09770118228144       -0.09130154882931
H            3.56654120610678       -1.63682992603973        0.04233140067262
H           -1.67107961066214        3.09322851271934       -0.02552706933167
H           -2.82428953597071        2.09428624779827       -0.95318082946668
H           -2.87644029173232        2.07745725625962        0.81450067533302
H           -1.17061996399332       -3.19584890659852        0.83242232437030
H           -1.14560257411436       -3.17511610292205       -0.95688275822323
H           -2.55549792440841       -2.55659984320617       -0.07459039797972
H            1.38130855184625       -2.94313852034425       -0.01389874181052
25
 energy: -5.394432121195 xtb: 6.6.1 (8d0f1dd)
C            3.24318087360366        1.17753094302138        0.08681633333707
N            2.30767407251353        0.09532874765179        0.03779680860455
C            2.59945099484628       -1.23273707952720        0.02995034063893
N            1.42745821996006       -1.94055673292824        0.00074352801153
C            0.39617738633379       -1.05658636229438       -0.00817279906224
C            0.92984821804124        0.22215444870479        0.01542383495371
C            0.10132793904558        1.39559738087989       -0.00504637299653
O            0.49796599601803        2.56142173177641       -0.00435824450943
N           -1.26066614753473        1.05063234058608       -0.03113631526986
C           -2.22010903593802        2.14794447502762       -0.05021610993302
C           -1.82388396467736       -0.20064532099255       -0.04720484568124
O           -3.02061118661924       -0.38200739567557       -0.07046280724851
N           -0.93443335621694       -1.30131682437297       -0.03691810938820
C           -1.47116212940767       -2.64385251939689       -0.06012902113481
H            3.72163570225480        1.22337364190372        1.06876248197618
H            4.01101657021814        1.04313261613407       -0.67646598708620
H            2.69600754992785        2.10200111158229       -0.08837029602143
H            3.57776338862926       -1.65883418953869        0.04244194524087
H           -1.65760818219373        3.07845330323842       -0.02566503692496
H           -2.82630926714066        2.09606882186274       -0.95416791161558
H           -2.87745828809092        2.07970213676046        0.81570723603202
H           -1.16718186343325       -3.19502771412027        0.83186880857883
H           -1.14213213542201       -3.17440151807789       -0.95584699500808
H           -2.55650123423110       -2.55405172885703       -0.07451623936832
H            1.36076454744964       -2.94429571117600       -0.01380032997799
25
 energy: -6.549455170714 xtb: 6.6.1 (8d0f1dd)
C            3.25118151590245        1.18777897987426        0.09066679577247
N            2.31699165682421        0.10759481532442        0.03408055420792
C            2.61087603966234       -1.25049741303142        0.02951054925199
N            1.41164263272936       -1.93979566880160        0.00069466977059
C            0.39883903096431       -1.05099711315230       -0.00907017015034
C            0.92677936749562        0.23113470149947        0.01224393332716
C            0.10639767925818        1.38211200579941       -0.00798889060956
O            0.48209806045303        2.56624160570344       -0.00793057781779
N           -1.27386728241627        1.03610762718714       -0.03242470089338
C           -2.21940447991573        2.14007727967923       -0.05062834714385
C           -1.83093099317078       -0.20368394011217       -0.04783398339247
O           -3.03311802381638       -0.39075774314793       -0.07063088168183
N           -0.94262177155194       -1.29770009840192       -0.03706077909577
C           -1.46997598147616       -2.64000848124720       -0.05955790033039
H            3.74052619077766        1.23902588615038        1.06994220596176
H            4.01690669995331        1.06793844715227       -0.67971918241519
H            2.69423369199078        2.10851938038730       -0.07660146204476
H            3.58110863851605       -1.68895489184872        0.04254300951999
H           -1.62760762404340        3.05337947421348       -0.02682540985997
H           -2.82820896947085        2.10183929463438       -0.95443229684621
H           -2.87650126133566        2.08694261250552        0.81735183201789
H           -1.16088615418482       -3.19221521502681        0.83152383236644
H           -1.13571584776013       -3.17215444596570       -0.95388764883579
H           -2.55557667799909       -2.55189290788871       -0.07415870574485
H            1.32904853055010       -2.94100558931419       -0.01277254918677
25
 energy: -5.929668328251 xtb: 6.6.1 (8d0f1dd)
C            3.25734448329982        1.19744740184152        0.09621942749549
N            2.32588825538048        0.11084909525848        0.02959962066418
C            2.61220536286960       -1.26696422878286        0.02767480378738
N            1.39485159364048       -1.93711919533755        0.00071735985497
C            0.39727979452767       -1.04464764737797       -0.01082652025465
C            0.92733651581786        0.23762366214115        0.00768678798154
C            0.10533093774069        1.37230621960372       -0.01461723283543
O            0.45420113601010        2.56679108252822       -0.01696757432842
N           -1.28806243595242        1.02193365244582       -0.03594112141067
C           -2.21437431004148        2.13613940902578       -0.05178436627735
C           -1.84085133181496       -0.21155958835895       -0.04913838416673
O           -3.04365010953367       -0.40729631505785       -0.07047488376854
N           -0.94824232516968       -1.29496650779344       -0.03737119424242
C           -1.46373546470678       -2.63921257606755       -0.05800495719849
H            3.76664476802720        1.25229703997289        1.06744539592304
H            4.01836246774202        1.11260438990248       -0.68631166870219
H            2.68848201074495        2.11684065552985       -0.04753658228578
H            3.57307641197058       -1.72671162849442        0.04200018040843
H           -1.58093446719966        3.02372140642808       -0.03113367039406
H           -2.82794673656819        2.11567934532893       -0.95353150072677
H           -2.86871724378924        2.10442813411199        0.82009038340828
H           -1.14900710749870       -3.18843801187027        0.83342138565888
H           -1.12363581369099       -3.17038161589067       -0.95119890914042
H           -2.54993778657738       -2.55545224181736       -0.07290804982285
H            1.29030606270790       -2.93688333509802       -0.01007483348016
25
 energy: 6.302342889942 xtb: 6.6.1 (8d0f1dd)
C            3.26888775662506        1.23216530397924        0.11962065980831
N            2.35379244443110        0.11836445920300        0.01181050414647
C            2.60978944847303       -1.32293883742102        0.01896388697876
N            1.33513992807110       -1.92610270894424        0.00087466264103
C            0.38801195510316       -1.02115292156208       -0.01839937131418
C            0.92932813059494        0.25986115885889       -0.01108144070985
C            0.09944452026243        1.34135728565019       -0.04425589505484
O            0.34958766921731        2.56776781905996       -0.05808698276455
N           -1.33849660410942        0.97225063656927       -0.05235985155368
C           -2.18753319218138        2.12896791583714       -0.05751672279896
C           -1.87854771316931       -0.24215258147943       -0.05494708893836
O           -3.08092646473527       -0.46998141054829       -0.06912087644172
N           -0.96712236229057       -1.28648539290891       -0.03893048383304
C           -1.43387917529971       -2.64125049872350       -0.05066324606510
H            3.86042214009342        1.27715150624656        1.05654119273500
H            3.99928453969885        1.28539936459670       -0.72018629488848
H            2.65337277535444        2.14919235931317        0.08565806794432
H            3.53591991931636       -1.86121289679399        0.03911937343840
H           -1.39840773782128        2.91822093688498       -0.05282273466005
H           -2.82009788692991        2.17345894209416       -0.94931109767734
H           -2.82509753592204        2.17885854855231        0.83247628519973
H           -1.09611219747563       -3.17465349652239        0.84364703390485
H           -1.07016059128992       -3.16702087860170       -0.93936637862728
H           -2.52275883994860       -2.58062421102186       -0.06673556561429
H            1.14837374186800       -2.92041180014616        0.00210626029215
25
 energy: 25.846081530927 xtb: 6.6.1 (8d0f1dd)
C            3.27080026554880        1.25899923379381        0.14235676004806
N            2.37382787751716        0.11826324287055       -0.00404702157560
C            2.60288585871229       -1.36960391988416        0.00964001464065
N            1.28915054599263       -1.92084103985308        0.00049889813776
C            0.37834828692083       -1.00377906146506       -0.02620715850992
C            0.93275877052330        0.27331363298121       -0.02902338254160
C            0.09826875636691        1.32162958019765       -0.07494882382882
O            0.28455811071281        2.56166640646960       -0.10059215581728
N           -1.37791692658861        0.94160001522654       -0.06979053591068
C           -2.16542083069425        2.13223328526270       -0.06349981150739
C           -1.90940144586233       -0.26399252956708       -0.06048452474786
O           -3.10888842887408       -0.52010704454048       -0.06679058421437
N           -0.98036779046691       -1.27992873848099       -0.04090066969030
C           -1.40280426885012       -2.64641092115650       -0.04271130639989
H            3.93952583197735        1.28098836169973        1.04307970262366
H            3.96299968728078        1.43903716123887       -0.74970726245398
H            2.61613214481329        2.17179509338382        0.21916149182391
H            3.49826234949548       -1.97228102867051        0.03499596071159
H           -1.27377958127063        2.84576232493713       -0.07566341112368
H           -2.81353413050759        2.22597313950213       -0.94361699661479
H           -2.78035931570699        2.24545303405377        0.84352873848198
H           -1.04431456615575       -3.16296769731805        0.85523957928471
H           -1.01833885943727       -3.16707912277731       -0.92717377671366
H           -2.49403616445287       -2.61217240179108       -0.05944071273283
H            1.03385849094186       -2.90852240394120        0.01313088477755
25
 energy: 31.535649489391 xtb: 6.6.1 (8d0f1dd)
C            3.26002384630051        1.27215199725421        0.15980919332166
N            2.38378297819357        0.10229062533237       -0.01692096829889
C            2.58628839323459       -1.39780131721168        0.00379648761566
N            1.27094250695073       -1.92278709412858        0.00103187090211
C            0.36841524645918       -0.99572731656384       -0.03360595761743
C            0.94366862244751        0.27195617647142       -0.04476454513245
C            0.10533244055776        1.32491492831685       -0.10327283367598
O            0.28324252445924        2.54160318678853       -0.13873131470298
N           -1.39935451448717        0.94466387198008       -0.08604163600877
C           -2.15451433568846        2.15114197604756       -0.06774075984779
C           -1.92835549420362       -0.27296293495441       -0.06487880599500
O           -3.11711437354312       -0.55347342461361       -0.06363180432763
N           -0.98039353505103       -1.27609507507783       -0.04344907282493
C           -1.37163252277107       -2.65499540495321       -0.03585769434610
H            3.98810403709046        1.26143474293390        1.02301255558118
H            3.90854909880486        1.54894475501229       -0.76311781908373
H            2.58630699061105        2.17629131661356        0.33028865063087
H            3.45682336623502       -2.04392535714200        0.03146523719756
H           -1.25437940296257        2.82723810328013       -0.09495746015704
H           -2.80846972304565        2.26577291445600       -0.93473479837488
H           -2.73948246837096        2.29177576735537        0.85079404308249
H           -1.00201026432815       -3.15496724195723        0.86682305772313
H           -0.97628437181882       -3.17012614341643       -0.91804208166243
H           -2.46449950713623       -2.64658916716219       -0.05246537868476
H            0.96722512999841       -2.90170128248928        0.02222573083336
25
 energy: 24.733727875187 xtb: 6.6.1 (8d0f1dd)
C            3.21847669774331        1.27142867431441        0.18020792928433
N            2.37576522916862        0.05425442485641       -0.02894885070999
C            2.53449220668564       -1.38625630715433        0.00211431474396
N            1.30091888061884       -1.93679962657669        0.00269467444228
C            0.34712470363534       -0.99814740932225       -0.04615388942577
C            0.97292163740589        0.24007341148907       -0.06704508427585
C            0.11641510324353        1.36656900742416       -0.14406743666093
O            0.36624691511424        2.50567948177684       -0.20377150744254
N           -1.39796262855402        0.98360026703174       -0.10848450724382
C           -2.14379910974335        2.20348286661421       -0.06752746722660
C           -1.94617622163997       -0.27635709082688       -0.07009761961505
O           -3.10687425642106       -0.58139350754613       -0.05548878193330
N           -0.95745568901401       -1.28310155350772       -0.05058691384335
C           -1.32562489317950       -2.67997653920412       -0.02800001913387
H            3.99811338379161        1.19251717498121        0.96858312997914
H            3.77426823752120        1.63065918777194       -0.72844146326151
H            2.56464131334649        2.12868675493238        0.45789438102330
H            3.37316919254915       -2.06127053703556        0.02290112222733
H           -1.35137102827096        2.87117096341707       -0.12268372613445
H           -2.80038440476603        2.32872156411477       -0.91146284138106
H           -2.66994588456962        2.35183797038116        0.86340704769389
H           -0.95114548612796       -3.14978449754633        0.88469195446376
H           -0.92595344854607       -3.18174559297485       -0.91067288128881
H           -2.41638734207534       -2.71537095031847       -0.04214519099408
H            0.96274156002002       -2.88944953492004        0.03011752286022
25
 energy: 41.592069254348 xtb: 6.6.1 (8d0f1dd)
C            3.19761256460786        1.28469116280983        0.21402285219960
N            2.38453217404982        0.03779248157343       -0.04648345691736
C            2.51564397775621       -1.41627393197802       -0.00774718145230
N            1.26859346162012       -1.93843792719727        0.00213325302800
C            0.33236752747879       -0.98760014618409       -0.05831801848543
C            0.97817684843604        0.23886407868920       -0.09225055507165
C            0.12114944899856        1.35843290408900       -0.18883420212125
O            0.35959866672925        2.50076458249069       -0.29008175510657
N           -1.42521432981459        0.97623134177199       -0.13438354884254
C           -2.12596319403051        2.23083927810134       -0.07266477657450
C           -1.97335944793899       -0.28983512143108       -0.07833795640699
O           -3.12631509224939       -0.62404877095398       -0.04865808654657
N           -0.96624604621161       -1.28249279794889       -0.05637343296910
C           -1.27960383905458       -2.69910657478931       -0.01778455148713
H            4.07443006366025        1.13714492912817        0.93836654595590
H            3.66710316028403        1.80092303477820       -0.75623579147065
H            2.50156061391781        2.11867619501417        0.66066449179336
H            3.32100911212194       -2.14576204725029        0.01574141092338
H           -1.26881051500565        2.85211212901233       -0.17096852678991
H           -2.80952275960530        2.39742842577570       -0.89271874101488
H           -2.60247838033125        2.43924081363448        0.88823592886322
H           -0.87950960815165       -3.14143604511324        0.90220334074230
H           -0.85399150521663       -3.19379174275334       -0.89499126368186
H           -2.37116272850038       -2.78517651144690       -0.03186930124520
H            0.87261449438570       -2.88015113765014        0.04436721882531
25
 energy: 40.314148084008 xtb: 6.6.1 (8d0f1dd)
C            3.17271700968789        1.25887972524489        0.23822099470580
N            2.36516382887749        0.04416114527093       -0.04812459602482
C            2.52295995422684       -1.36413423431616       -0.00695112981939
N            1.25206794909366       -1.93547578033448       -0.00373081744232
C            0.32817234986246       -0.99130071472523       -0.06603972014228
C            0.94971990271807        0.23375955599389       -0.10814534463872
C            0.08923598130257        1.32134589541805       -0.18704122225391
O            0.37382941940442        2.57787670109254       -0.39433318710232
N           -1.40104363391667        0.95812533329747       -0.13429419609880
C           -2.12395109498661        2.23982824269762       -0.06215726547731
C           -1.96909460542817       -0.29010125646049       -0.08545076170396
O           -3.14193817410649       -0.61224588997703       -0.04131891379225
N           -0.99098805014306       -1.30440845908796       -0.06477312152563
C           -1.27023751133876       -2.72725516625033       -0.01832643628418
H            4.05773441853756        1.07352768862361        0.91474510700069
H            3.56667964270417        1.81887963991112       -0.73622115412756
H            2.46772491509073        2.04300515581109        0.75803015211249
H            3.32877705515782       -2.08151375680978        0.00858427023169
H           -1.13747322624937        2.91106695364949       -0.22841930117399
H           -2.84843380705063        2.43455323690153       -0.86752985376276
H           -2.56656792508990        2.48888621260622        0.93017935860604
H           -0.84444934184095       -3.15328408278091        0.90491626606356
H           -0.81676236377771       -3.21823022789864       -0.89255388364223
H           -2.35064774330144       -2.85387732483837       -0.03066456138807
H            0.89901971850191       -2.88303999086704        0.04843321382743
25
 energy: 41.806644029761 xtb: 6.6.1 (8d0f1dd)
C            3.12551223162296        1.26023445282918        0.27590930833691
N            2.34633838796959        0.02784796836186       -0.06054665778127
C            2.49130312656818       -1.36034474347926       -0.00851659166731
N            1.24443655146032       -1.93650083985105       -0.00861144463540
C            0.30990200890954       -0.99060943336731       -0.08620547239930
C            0.94418856153893        0.22732859638200       -0.15120600388278
C            0.08842973902042        1.32421286873233       -0.26544875300007
O            0.40251601905485        2.54216478486395       -0.46538774642217
N           -1.40215803962216        0.97405373614399       -0.16261818923261
C           -2.09027551444901        2.27772892736749       -0.06023750654168
C           -1.97921816866768       -0.28479587173268       -0.09205267825098
O           -3.14124144893390       -0.61325099059258       -0.02837907609483
N           -0.99471319620980       -1.30653683051792       -0.07745637527356
C           -1.22818153024379       -2.74695554728715       -0.00838433295116
H            4.07211991616080        1.01840650079791        0.87624061231494
H            3.43482477887378        1.89672021783531       -0.69336565611371
H            2.43664876736684        1.99843694323314        0.89616347707543
H            3.27949333765086       -2.09932702590779       -0.00354370711405
H           -1.14146680680259        2.93581929261512       -0.25907816764759
H           -2.84907672371229        2.48914620942705       -0.82610724890747
H           -2.47433539520600        2.54565692662824        0.95032257717670
H           -0.77646432316685       -3.14395569491228        0.91971455270945
H           -0.75259139463697       -3.23294141574818       -0.87471382755213
H           -2.30539234375150       -2.93890742467331       -0.01597282496548
H            0.87161612714124       -2.87460300497601        0.05651562896725
25
 energy: 29.517213536865 xtb: 6.6.1 (8d0f1dd)
C            3.06427063118735        1.24908643398190        0.31062653053597
N            2.30404624596997        0.03044532676440       -0.07223615434486
C            2.46479567649715       -1.33016648532773        0.00498761752839
N            1.25729890855081       -1.93655744701799       -0.01526782569548
C            0.29603358262439       -1.00224087784404       -0.11189321076599
C            0.91861967992021        0.22606560423719       -0.20773440758084
C            0.07417933466523        1.33361496699056       -0.37375555071304
O            0.44525041689271        2.46966780990683       -0.51014091787730
N           -1.37349730429568        1.00681757026773       -0.18571664890498
C           -2.03823438688375        2.31223919684086       -0.05382912726371
C           -1.96405681796899       -0.25626636556034       -0.09337512706304
O           -3.12302454683469       -0.55610326322084       -0.00996065147240
N           -0.99934824634986       -1.31216267678542       -0.09668813518376
C           -1.20402556033646       -2.75838119242628       -0.00025347303638
H            4.01881928387006        0.98207950855534        0.82362637582669
H            3.29515091483271        1.88503384389080       -0.58475762228039
H            2.43726476894962        1.90581722514082        0.96524063617509
H            3.26143006715475       -2.04968625518633       -0.02372810492526
H           -1.21746803465675        2.98398332450948       -0.26164275590312
H           -2.83710511745126        2.51646809532157       -0.76452987407577
H           -2.37110727351711        2.55743894734152        0.95354583289355
H           -0.73284116691298       -3.13142109968242        0.92647569880854
H           -0.71290158080271       -3.24405575648348       -0.85582711782415
H           -2.26407332630115       -3.01735259355655        0.00188654482466
H            0.91273851913221       -2.87533523848552        0.06198136446475
25
 energy: 30.016564235358 xtb: 6.6.1 (8d0f1dd)
C            3.00828991556735        1.23100736440568        0.35703740395238
N            2.27245404925602        0.03209856536604       -0.09381432075659
C            2.45677282216779       -1.31181544252823        0.02085658006985
N            1.25134187964326       -1.94150791228276       -0.02117338846943
C            0.28586719642603       -1.01643497144030       -0.14289503552188
C            0.88889075951088        0.21644210091882       -0.26011055208690
C            0.05815019096919        1.32347760092845       -0.45351073455656
O            0.47968434288300        2.45454304632360       -0.64193679779813
N           -1.35219277450712        1.02558960950581       -0.21159169260238
C           -2.00405212988024        2.33929558087335       -0.04383960901572
C           -1.95462440414652       -0.23390158269165       -0.10213278216444
O           -3.12170559403779       -0.50533633266151        0.01193530651718
N           -1.01765761083707       -1.32208258717099       -0.12177033688072
C           -1.18236336180331       -2.77452259188175        0.00561488574570
H            4.00126893658493        0.91716406897839        0.77424548569214
H            3.13362507611596        1.95319257495384       -0.51810907006131
H            2.39873206690180        1.81094207951794        1.13656941386628
H            3.26112165836023       -2.01232370126444       -0.04186958886430
H           -1.20043359663024        3.02440853505470       -0.31432367819175
H           -2.85731893531153        2.54632294334606       -0.69764606076493
H           -2.25927791842348        2.59442225505017        0.99589126719057
H           -0.68334992538580       -3.11481332030125        0.93569276499267
H           -0.66508822331896       -3.25894810543753       -0.83895456990200
H           -2.22376597242610       -3.10237852555001        0.01646807363842
H            0.93784622025742       -2.88581264984040        0.07640093211901
25
 energy: 24.323571999949 xtb: 6.6.1 (8d0f1dd)
C            2.95082286151066        1.21090210101915        0.40238401172319
N            2.23730560510541        0.05397240227111       -0.12571670269935
C            2.46685519084234       -1.29754426991375        0.06211003368313
N            1.25073851034023       -1.95073880276161       -0.02683298232946
C            0.28519421733046       -1.04237668096813       -0.18221917366335
C            0.84938254730185        0.20186744938151       -0.31098059901161
C            0.03364025804767        1.31013737002780       -0.52141847224682
O            0.50011188912761        2.44462050462491       -0.78790857413319
N           -1.32441089353726        1.04661886243914       -0.22715865238973
C           -1.97645502256327        2.35336482829631       -0.02306458074551
C           -1.93214077053543       -0.20247672149512       -0.10685581808353
O           -3.11777215650765       -0.41755785736818        0.03996589373382
N           -1.03909733738061       -1.33272447315703       -0.15732716440183
C           -1.18186932066544       -2.77924426716461        0.00519554651284
H            3.95293940672063        0.88712849867465        0.71961374810374
H            2.98759937689359        1.98872783005564       -0.40568997674606
H            2.38793663088480        1.69160905765766        1.25791009826822
H            3.30369717239528       -1.95078213172471       -0.07114472444393
H           -1.18573002030974        3.05803466555147       -0.36991591931972
H           -2.87933925400364        2.54343001816324       -0.61193411776559
H           -2.15550067690387        2.59885455230891        1.04052309282881
H           -0.66596192878443       -3.08991902177633        0.93565059817078
H           -0.64581429123341       -3.26412500059973       -0.82863498324330
H           -2.19330540647110       -3.15795695086648        0.02730400352133
H            1.00338808033091       -2.91479336050376        0.09317931082427
25
 energy: 22.867506059242 xtb: 6.6.1 (8d0f1dd)
C            2.89486413534273        1.19660470783671        0.45040981512876
N            2.21582481705976        0.06407256707456       -0.16024435124397
C            2.47484964399530       -1.29569791419610        0.10839437447387
N            1.26271459356882       -1.96137028638745       -0.02350020336045
C            0.28603954935277       -1.06865260546632       -0.22354418104062
C            0.83386884379871        0.17921289807216       -0.36366830680374
C            0.03275624314089        1.30451476143821       -0.61186474736143
O            0.49854797066195        2.41734683577009       -0.93169008296747
N           -1.30676731880383        1.06470326387951       -0.25038151668315
C           -1.94395095604638        2.36919927048790       -0.00563620645236
C           -1.91671180756433       -0.17863776354841       -0.10928829818829
O           -3.10839956940247       -0.34198587720230        0.06785287724928
N           -1.05154026062674       -1.33604963213271       -0.19773062056376
C           -1.18945433946562       -2.77470516609225        0.00584735418324
H            3.92901100492959        0.86080887588360        0.66206877646957
H            2.84243167085208        2.05109795341592       -0.29573471778876
H            2.36880384555194        1.57386311975706        1.39894809262404
H            3.34312128857034       -1.89309170561592       -0.11345760092637
H           -1.19465779627960        3.06997263489899       -0.40768436085927
H           -2.89559006657212        2.54102767000945       -0.52404294687293
H           -2.04715735003486        2.59570746796124        1.07162882859011
H           -0.66821539315576       -3.05172988834242        0.94135898731501
H           -0.64475159188019       -3.26543350207843       -0.81624965230318
H           -2.17894644518011       -3.19421236931180        0.03882956945373
H            1.07552395612271       -2.93753671393921        0.11641301407528
25