25
 energy: -40.341898365395 gnorm: 11.294754353079 xtb: 6.6.1 (8d0f1dd)
C            3.31173537936080        1.10679033493680        0.04543151068317
N            2.31350291182475        0.07420521408524        0.02837093731600
C            2.53698895124419       -1.25263163356657        0.00599728135480
N            1.34547392580618       -1.91667596246557       -0.01733306702440
C            0.34762248542360       -0.98540087556606       -0.00818089057419
C            0.94693792743533        0.27591793773316        0.01996123315846
C            0.20859566942479        1.48655547635258        0.04420094352773
O            0.62133257843197        2.62988594007392        0.06811152292993
N           -1.23773961285135        1.23414550279907        0.04093790517066
C           -2.01482818509904        2.33400548806567        0.08954718979404
C           -1.77264419057070       -0.02034560249592       -0.02199222635945
O           -3.11017589842998       -0.18079384450682       -0.05422603295935
N           -0.99825688520782       -1.15839924594634       -0.02974788333093
C           -1.58014560789737       -2.48200897275130       -0.09226272038925
H            3.94052076412033        1.01428444643801        0.93186992162810
H            3.94365229336026        1.03970447879773       -0.84122885050495
H            2.81018878645125        2.07332362246004        0.05850297392432
H            3.49785608770461       -1.72037777412963        0.00729901126610
H           -1.50977701558713        3.27813545424764        0.11842780111630
H           -3.40331541508587        0.09130685239813       -0.12605517833799
H           -3.08191595696131        2.26739518681804        0.11741439872720
H           -1.23489166836694       -3.08036805385286        0.75150406956676
H           -1.30358004804551       -2.97167092791369       -1.02753567730198
H           -2.66184320807951       -2.40003249760821       -0.04337607443451
H            1.24513744569470       -2.91871200280285       -0.03446648104624
25
 energy: -42.159580319536 gnorm: 0.307161060951 xtb: 6.6.1 (8d0f1dd)
C            3.31173721811432        1.10679002942896        0.04543475917197
N            2.31350338043087        0.07420564579370        0.02836256727448
C            2.53698923854738       -1.25262702641556        0.00599877704260
N            1.34549522443906       -1.91668404260482       -0.01733119390474
C            0.34774834135676       -0.98540344452604       -0.00821243770339
C            0.94692660881201        0.27592712752476        0.01996846045885
C            0.20859367508764        1.48661723764625        0.04417618735887
O            0.62132698675412        2.62989267398652        0.06811336687508
N           -1.23826604127855        1.23448354741183        0.04084525506179
C           -2.01490918140480        2.33395869138149        0.08957104766253
C           -1.76114181635848       -0.02437341070168       -0.02094387695185
O           -2.88476830508865       -0.38641608557375        0.00054791386664
N           -0.99654026262273       -1.15840478934351       -0.02976229681767
C           -1.58011870463805       -2.48199311984610       -0.09223322871304
H            3.94051970112560        1.01428393252149        0.93187076543283
H            3.94365118354229        1.03970628077950       -0.84122711305691
H            2.81019017331868        2.07332450087574        0.05850458751615
H            3.49785910942038       -1.72037837607673        0.00729696599071
H           -1.50978380498350        3.27813911337694        0.11843020874806
H           -3.64147399279556        0.30053232079691       -0.18178759341141
H           -3.08192635527265        2.26739449457579        0.11741625548515
H           -1.23489080471804       -3.08037182518833        0.75150839575699
H           -1.30358100989122       -2.97167517271358       -1.02753269129430
H           -2.66184161388043       -2.39997798764917       -0.04337320429839
H            1.24513256608380       -2.91871177386040       -0.03447025965070
25
 energy: -42.189441322378 gnorm: 0.082961502792 xtb: 6.6.1 (8d0f1dd)
C            3.31978335195629        1.10445729081876        0.04808506689866
N            2.32516835003423        0.07172483602722        0.02986471171465
C            2.55049936219586       -1.25690770395800        0.00807310891374
N            1.36103553545514       -1.92147498666390       -0.01680021276499
C            0.37236690972804       -0.98695424195218       -0.01220800126743
C            0.96003347889534        0.27579468614111        0.01853656258432
C            0.21899190698234        1.48541317183583        0.04007126310224
O            0.62812678671649        2.63097653409381        0.06823796421674
N           -1.22936258352701        1.23396704946610        0.03281677293941
C           -2.01477645194099        2.33650615274927        0.08626702902937
C           -1.74622969993120       -0.01551847413490       -0.03088468547922
O           -3.00938680000090       -0.37737325154667        0.01382731418442
N           -0.96623838308625       -1.15587204176090       -0.03880841036559
C           -1.56376983640694       -2.47971094380098       -0.09452979073163
H            3.94572344789747        1.01020932163487        0.93581286460747
H            3.95037921827342        1.03588395743548       -0.83888612965978
H            2.81533875399253        2.06949570562051        0.06074216681415
H            3.50855210768736       -1.72579465211303        0.01010651136269
H           -1.51036777029983        3.28045899361471        0.11564492273559
H           -3.75776813101112        0.31350933564968       -0.16448758757783
H           -3.08228484105858        2.26808070994363        0.11694587704482
H           -1.22648339692275       -3.07739164148285        0.75161489890810
H           -1.29472321589751       -2.97206373281230       -1.02942778976533
H           -2.64712488401455       -2.40682988672035       -0.04542783308493
H            1.25294829838331       -2.92234764648472       -0.03401497645933
25
 energy: -42.192145400375 gnorm: 0.064704269613 xtb: 6.6.1 (8d0f1dd)
C            3.32201929541151        1.10434912969401        0.05007787984392
N            2.32544064307219        0.07111703581761        0.02941874968330
C            2.55270424002033       -1.25595859495739        0.00849960539026
N            1.36263204312928       -1.92263015713096       -0.01918658331388
C            0.36727507063481       -0.99260521924219       -0.01494364699888
C            0.95779824199033        0.27075829460610        0.01592793896418
C            0.21345385133047        1.47713228083205        0.03588323826264
O            0.61911940990389        2.62324745460554        0.06338929729473
N           -1.23583224963440        1.22316256121640        0.03403420575747
C           -2.01385399463677        2.32869833313427        0.08498765439071
C           -1.75828915223966       -0.02278754212566       -0.02714591178836
O           -3.05067619270456       -0.31643783056850        0.01854129887260
N           -0.97499911540242       -1.16560224870915       -0.04143321316312
C           -1.55032978973682       -2.49693147661877       -0.09579010447953
H            3.94844046706225        1.01144428126469        0.93798946385684
H            3.95582822099215        1.03828400992837       -0.83515707519465
H            2.81927639451456        2.07007385447688        0.06271083074222
H            3.51338409739751       -1.72276433511242        0.01264682158622
H           -1.50585566956566        3.27132067228630        0.10926500509994
H           -3.78009017500881        0.38866031265515       -0.15879475558503
H           -3.08090594554492        2.26352669325642        0.12016681021001
H           -1.20013231359371       -3.08471550857450        0.75255918191650
H           -1.27052830498350       -2.98443324618129       -1.03047029745003
H           -2.63281929939764       -2.43482253502986       -0.04566030171716
H            1.25737174108981       -2.92384767792288       -0.03634447428056
25
 energy: -42.192901386599 gnorm: 0.054954315227 xtb: 6.6.1 (8d0f1dd)
C            3.32449028017607        1.10436732852249        0.05372186385497
N            2.32598387199815        0.07230226570118        0.02838463193256
C            2.55388782185182       -1.25417668001666        0.00735616048584
N            1.36394875654125       -1.92165553441242       -0.02282915066593
C            0.36493487458609       -0.99335524529991       -0.01850297664159
C            0.95729534765362        0.27029879584715        0.01228085372774
C            0.21025292048536        1.47480968146910        0.03035562471597
O            0.61361246985344        2.62156464755751        0.05557895292079
N           -1.24034397725054        1.21667965641880        0.03169216231701
C           -2.01388399475568        2.32322476047132        0.08184499785313
C           -1.76146276373627       -0.03282300420474       -0.02284813114588
O           -3.06881840286443       -0.29612611129679        0.02424561789030
N           -0.97899981439979       -1.17024386131521       -0.04327227054371
C           -1.54697242711499       -2.50198523343172       -0.09580254899559
H            3.94908135976779        1.00854853636579        0.94293097978786
H            3.96115581494096        1.03915275207003       -0.82978640585640
H            2.82373609772201        2.07107667943168        0.06715920764609
H            3.51573560005652       -1.72018944662159        0.01362913100318
H           -1.50364761084676        3.26477364447787        0.10194868639891
H           -3.78487604748304        0.41514400041407       -0.15313686330128
H           -3.08062061297919        2.26163534333055        0.12836226001470
H           -1.19312394943865       -3.08697201341833        0.75374081827021
H           -1.26268427719455       -2.99083152534941       -1.02904425740116
H           -2.62914379221623       -2.43359224642267       -0.04663513042395
H            1.26089396874726       -2.92338864868788       -0.04020259594347
25
 energy: -42.193582881370 gnorm: 0.047317097062 xtb: 6.6.1 (8d0f1dd)
C            3.32680487480732        1.10396080951682        0.05914350927755
N            2.32578037604729        0.07415334998068        0.02627151092243
C            2.55370118183568       -1.25220917354012        0.00470626686076
N            1.36429259960893       -1.91990933269430       -0.02790045136367
C            0.36294589588996       -0.99181736480380       -0.02373839220745
C            0.95675651850838        0.27178723368250        0.00718980686133
C            0.20724598064983        1.47472262992027        0.02300485626811
O            0.60878783136973        2.62188772761563        0.04405904999800
N           -1.24545431105237        1.21268964048085        0.02785487004209
C           -2.01488954215691        2.31958512613709        0.07754411613525
C           -1.76263832392063       -0.04302876969150       -0.01627055918010
O           -3.08008693899352       -0.28554643339113        0.03148895615308
N           -0.98197310646240       -1.17268710120544       -0.04543538863655
C           -1.54526867510690       -2.50478737205906       -0.09504878799082
H            3.94773662307752        1.00255180679256        0.95058006707714
H            3.96728661987143        1.03980622619588       -0.82184172540282
H            2.82906464180513        2.07213501009039        0.07404118913269
H            3.51611899894132       -1.71786686681632        0.01333714464206
H           -1.50198614901559        3.25985350734803        0.09126300113150
H           -3.77972853816903        0.42985382804788       -0.14681338951313
H           -3.08128138567417        2.26340983974658        0.14187840678043
H           -1.19155847552310       -3.08860299792343        0.75580000755801
H           -1.25724702344455       -2.99774076822416       -1.02540684372671
H           -2.62747589432881       -2.43184676673689       -0.04879662658384
H            1.26349773553567       -2.92211524686881       -0.04573897633504
25
 energy: -42.194614175955 gnorm: 0.039738478372 xtb: 6.6.1 (8d0f1dd)
C            3.32898762647799        1.10294742237486        0.06787097313657
N            2.32453360477511        0.07667584015725        0.02197091648666
C            2.55217371158464       -1.24997388111422       -0.00023991461296
N            1.36377370646512       -1.91780112747903       -0.03574702228465
C            0.36087797805699       -0.98871300669152       -0.03286099249584
C            0.95570460814562        0.27466569716352       -0.00097160149530
C            0.20357921405635        1.47593689413856        0.01175843656202
O            0.60324887524694        2.62341358001752        0.02550663053699
N           -1.25271481154591        1.20995845370789        0.02232268667676
C           -2.01788249735029        2.31647813355057        0.07158670244546
C           -1.76294255777245       -0.05481050191128       -0.00450687810049
O           -3.08818083239711       -0.27993597696624        0.04243616370856
N           -0.98465696702020       -1.17396917989524       -0.04951101867286
C           -1.54462841613661       -2.50646377060014       -0.09340327915361
H            3.94310747907202        0.99244788238683        0.96327640005603
H            3.97579939976679        1.04110171025451       -0.80875181756005
H            2.83565059555749        2.07321660005576        0.08498698196813
H            3.51497765999906       -1.71513937437523        0.01141315782868
H           -1.50133522510380        3.25516029126007        0.07335393238157
H           -3.75909527749694        0.43904388675408       -0.13829049145917
H           -3.08334242748715        2.26920527086195        0.16500164930161
H           -1.19524608727913       -3.08798441692662        0.76126060896815
H           -1.25073404213676       -3.00666960234380       -1.01846608053280
H           -2.62726055420955       -2.43012133546869       -0.05407833125735
H            1.26603675083203       -2.92043094731114       -0.05474619453182
25
 energy: -42.195774708671 gnorm: 0.033179572702 xtb: 6.6.1 (8d0f1dd)
C            3.32876894911116        1.10194491737463        0.07652524370938
N            2.32226468305540        0.07841645729343        0.01642884421725
C            2.54983829500883       -1.24873179869393       -0.00571105378193
N            1.36252573933912       -1.91701340835405       -0.04342814547347
C            0.35980186889024       -0.98648164909158       -0.04346979160736
C            0.95407693243516        0.27685790968181       -0.00946377705947
C            0.20109962353429        1.47737045991217        0.00103720402249
O            0.59957696819185        2.62495068868577        0.00696346148926
N           -1.25859148471166        1.20989184586039        0.01864091359239
C           -2.02223017542906        2.31528847869115        0.06778828595435
C           -1.76266991364698       -0.06105253712670        0.00917309566020
O           -3.08837007386407       -0.28182298163165        0.05296227447076
N           -0.98553515756716       -1.17373360715943       -0.05553288839994
C           -1.54604857876853       -2.50639122003873       -0.09142613595438
H            3.93479572073775        0.98340623566040        0.97649821395175
H            3.98265703738792        1.04334147810231       -0.79501739238104
H            2.83854975875502        2.07364416655327        0.09513044754327
H            3.51288511478430       -1.71290316890844        0.00809920850266
H           -1.50314500195044        3.25299437163552        0.05480265046594
H           -3.72205247794976        0.43897935493643       -0.13140939304887
H           -3.08558216194204        2.27684472366698        0.18881548417018
H           -1.20576926644948       -3.08305193205457        0.77052927316325
H           -1.24459557346679       -3.01507052390641       -1.00949070303299
H           -2.62933524145858       -2.42970104530683       -0.06275351951104
H            1.26751593007377       -2.91973867418173       -0.06452018276232
25
 energy: -42.196589559269 gnorm: 0.026396850600 xtb: 6.6.1 (8d0f1dd)
C            3.32479466641599        1.10233340976401        0.07996521282951
N            2.32017280498904        0.07795420564643        0.01261648411013
C            2.54846007978868       -1.24931647411243       -0.00876170030024
N            1.36159644354416       -1.91853358312162       -0.04674887266903
C            0.36032773091037       -0.98796485971366       -0.04955094427579
C            0.95249703624648        0.27583729780925       -0.01369289127327
C            0.20173436600753        1.47722841402984       -0.00300262151603
O            0.60011255841009        2.62475754845532       -0.00078161567475
N           -1.25802737918473        1.21152146394285        0.01969690709112
C           -2.02467710784194        2.31593760659394        0.06939849182284
C           -1.76218379760689       -0.05679869541393        0.01650040455502
O           -3.08103308704070       -0.28753948458873        0.05634982713262
N           -0.98417885024226       -1.17306311726493       -0.06065676444328
C           -1.54941007551774       -2.50532073299448       -0.08979474611088
H            3.92564734287445        0.98305224618532        0.98286329447187
H            3.98307747501211        1.04649713144774       -0.78819595689674
H            2.83319268667508        2.07334327557386        0.09764025112336
H            3.51172061419338       -1.71212222038596        0.00459948691040
H           -1.50644560158122        3.25402763750695        0.04789941942439
H           -3.68462587155561        0.43395190285090       -0.13135508414488
H           -3.08570305551712        2.27992309711578        0.19949904765441
H           -1.21979688129812       -3.07544005448947        0.78063131296818
H           -1.24111064007336       -3.02019275670205       -1.00157666974775
H           -2.63308173959124       -2.43085616999326       -0.07186888175713
H            1.26737179608380       -2.92097854654144       -0.07050177338378
25
 energy: -42.196923215119 gnorm: 0.020975392695 xtb: 6.6.1 (8d0f1dd)
C            3.31979936700784        1.10432143927249        0.07736219468143
N            2.31961456640678        0.07599125464160        0.01226083598360
C            2.54906459833468       -1.25084746614699       -0.00880697299757
N            1.36190533812495       -1.92089218895781       -0.04496827196542
C            0.36148480611279       -0.99200850985719       -0.04759162795829
C            0.95187255849560        0.27243374331683       -0.01227013443252
C            0.20428689527629        1.47542618046131        0.00001887069656
O            0.60333526160746        2.62291556640980        0.00385003305991
N           -1.25224607381410        1.21210489382458        0.02254344539383
C           -2.02314245142630        2.31659876300633        0.07346359527213
C           -1.76160028369873       -0.04862324483525        0.01334434949942
O           -3.07461941846886       -0.28982969625292        0.05026345564928
N           -0.98253185532831       -1.17343709133921       -0.06084386320810
C           -1.55255357746007       -2.50488007825213       -0.08831950144178
H            3.92052013246384        0.99104906696815        0.98071916027614
H            3.97836704147051        1.04969732745782       -0.79042007811362
H            2.82333036032749        2.07308196415577        0.09232940969916
H            3.51252145318592       -1.71279007391781        0.00174325142090
H           -1.50757267125555        3.25577342880889        0.05571238690750
H           -3.66763040726390        0.43337365373618       -0.13949715986512
H           -3.08402925761788        2.27606041576128        0.19806555027152
H           -1.23047008281337       -3.07043564719297        0.78751731521924
H           -1.23972434827049       -3.02194714872040       -0.99669609869107
H           -2.63615180887257       -2.43185448751777       -0.07774672533752
H            1.26660137157623       -2.92304352323036       -0.07086180211929
25
 energy: -42.197082094541 gnorm: 0.018068234041 xtb: 6.6.1 (8d0f1dd)
C            3.31576871000924        1.10678397814957        0.07261814981337
N            2.31990532385610        0.07405111348058        0.01298878319707
C            2.55048825223530       -1.25220506131478       -0.00831920042704
N            1.36293077540926       -1.92279224497389       -0.04163916224124
C            0.36229395253657       -0.99593619301793       -0.04214608314551
C            0.95178767563606        0.26902892173995       -0.00883694406001
C            0.20630030205167        1.47331344464120        0.00523339983056
O            0.60633540168488        2.62072726321825        0.01250391604360
N           -1.24656841763268        1.21147411167635        0.02524862545380
C           -2.02016500002149        2.31677598948113        0.07802164480759
C           -1.76129085618997       -0.04319905188969        0.00601233084319
O           -3.07254690520514       -0.28884800342251        0.03940979295451
N           -0.98172275645963       -1.17483093540865       -0.05790304545828
C           -1.55474782138291       -2.50541222097742       -0.08635440168060
H            3.91820476249722        1.00090466841727        0.97571470605657
H            3.97331176253182        1.05231536822089       -0.79585029018418
H            2.81416920560005        2.07317629086922        0.08444557535637
H            3.51409684148348       -1.71387549729331       -0.00122391978725
H           -1.50663477713215        3.25691944932859        0.06869116991205
H           -3.66125343601021        0.43815268239966       -0.15236576336804
H           -3.08205224971768        2.27044290333899        0.19534833262018
H           -1.23915302021856       -3.06803186762255        0.79340465203512
H           -1.23713226847654       -3.02408508730046       -0.99192870974061
H           -2.63817291333100       -2.43178503613517       -0.08283480552339
H            1.26627897034657       -2.92482644400508       -0.06906713540750
25
 energy: -42.197223504097 gnorm: 0.017003928380 xtb: 6.6.1 (8d0f1dd)
C            3.31217520352716        1.10955893860812        0.06618111399528
N            2.32043896508475        0.07234086764493        0.01352319992012
C            2.55214027837921       -1.25330821497492       -0.00822522878762
N            1.36435121464685       -1.92436991534044       -0.03762461496833
C            0.36276595838618       -0.99948806125029       -0.03492072142858
C            0.95185508753767        0.26589016021013       -0.00435316388949
C            0.20731903409059        1.47105538436215        0.01205863895799
O            0.60869895276897        2.61831211160134        0.02354592542079
N           -1.24199134157349        1.21009878343370        0.02913896583228
C           -2.01703177184031        2.31651557826994        0.08466743962451
C           -1.76125303390236       -0.04067915379560       -0.00334251301788
O           -3.07341566006692       -0.28616971267884        0.02309252554575
N           -0.98147625535845       -1.17701840261729       -0.05309410722646
C           -1.55652850516489       -2.50668870275524       -0.08334172358613
H            3.91670825174285        1.01190660352603        0.96897823843170
H            3.96849976837393        1.05410892747505       -0.80309916783916
H            2.80556612583907        2.07357345359648        0.07409532200736
H            3.51582589801823       -1.71507220633941       -0.00498716851012
H           -1.50485866997456        3.25735678253074        0.08512551559271
H           -3.65483497707615        0.44784381336953       -0.17192582240165
H           -3.07997609406372        2.26475786199236        0.19488970832987
H           -1.24959476133525       -3.06632141782769        0.80125537470283
H           -1.23166959257524       -3.02850902669357       -0.98458961152713
H           -2.63976958957113       -2.43105374913863       -0.08984208039164
H            1.26648702820724       -2.92640216160839       -0.06603442688668
25
 energy: -42.197436312726 gnorm: 0.015998331832 xtb: 6.6.1 (8d0f1dd)
C            3.30773968405680        1.11349544200880        0.05486716607703
N            2.32110152144520        0.07050868588705        0.01355121937164
C            2.55424873105026       -1.25438057630187       -0.00867466871241
N            1.36648929499606       -1.92618587979675       -0.03131891223532
C            0.36304626164694       -1.00360884666812       -0.02339829856562
C            0.95195138982727        0.26215982490823        0.00284234633266
C            0.20712983858235        1.46782637873442        0.02344799875344
O            0.61068399259103        2.61476820564683        0.04133961852866
N           -1.23772281515715        1.20744059568332        0.03706478179755
C           -2.01354051975912        2.31523753210663        0.09784144534159
C           -1.76136858763235       -0.04083565433720       -0.01809845334378
O           -3.07704327223225       -0.28116766509674       -0.00827016834402
N           -0.98156067848475       -1.18070618349537       -0.04463304086536
C           -1.55858823950470       -2.50909700397961       -0.07764835490923
H            3.91508182108846        1.02816002501248        0.95736120571955
H            3.96241537058965        1.05449360835343       -0.81537817118671
H            2.79494659730127        2.07446389873941        0.05595198420958
H            3.51792650711344       -1.71657003229437       -0.01076676769970
H           -1.50236611043620        3.25650358352465        0.11174784511675
H           -3.64088144571422        0.46780118553114       -0.21018255332129
H           -3.07765678314270        2.25754192079394        0.20048092210980
H           -1.26746361403696       -3.06376046447242        0.81555965758689
H           -1.22001367559635       -3.03774812558029       -0.97014710829248
H           -2.64147285581361       -2.42979264310613       -0.10272955355494
H            1.26734910132182       -2.92830927020128       -0.05963852201393
25
 energy: -42.197674326496 gnorm: 0.012931532898 xtb: 6.6.1 (8d0f1dd)
C            3.30448033178775        1.11677030928506        0.04140458886377
N            2.32124708384160        0.06971567318512        0.01259129295541
C            2.55552772104530       -1.25464151190838       -0.00929120993135
N            1.36834651039692       -1.92741169328117       -0.02449519881617
C            0.36291296917163       -1.00617161492550       -0.01183860109600
C            0.95185021394190        0.25975313335587        0.01001454528360
C            0.20482277618469        1.46486760790849        0.03553972745472
O            0.61039747929182        2.61147307426419        0.05954227834924
N           -1.23688755467450        1.20414165807815        0.04766119968983
C           -2.01247404784753        2.31230287092517        0.11557969687142
C           -1.76133565110249       -0.04514235360458       -0.03317760932890
O           -3.08192233229718       -0.27552186995497       -0.04897663894131
N           -0.98194841377418       -1.18448224052173       -0.03551239249105
C           -1.56002962231918       -2.51176674052706       -0.07079137664809
H            3.91381119268169        1.04380137196498        0.94387370056071
H            3.95790049149415        1.05097602195444       -0.82929313192990
H            2.78762835396700        2.07556750979059        0.03396430756734
H            3.51912217777371       -1.71729882171934       -0.01542453406975
H           -1.50128159285592        3.25326423142067        0.14013161871180
H           -3.61850541182283        0.49462602190927       -0.26078670615656
H           -3.07701300992931        2.25190199619108        0.21778324343405
H           -1.28805443405886       -3.06041044309425        0.83253434333807
H           -1.20480356202744       -3.04955626923411       -0.95164905322748
H           -2.64217847459087       -2.42879794974111       -0.11837395452704
H            1.26881831982234       -2.92972143012072       -0.04983851801600
25
 energy: -42.197875995105 gnorm: 0.007959419096 xtb: 6.6.1 (8d0f1dd)
C            3.30404614032188        1.11747218446802        0.03143187502645
N            2.32033743842325        0.07062648951484        0.01088904754111
C            2.55496776022470       -1.25376001578274       -0.00904342469012
N            1.36878331233659       -1.92750131678285       -0.01974230085255
C            0.36236468881637       -1.00581444319805       -0.00623053720916
C            0.95128005112285        0.26004082919658        0.01290447793152
C            0.20108902903561        1.46365489984128        0.04161754136680
O            0.60718593097156        2.61012551046715        0.06809090114699
N           -1.24072644977680        1.20150484982947        0.05596256777920
C           -2.01572635039982        2.30796361263755        0.13128118917480
C           -1.76080667624328       -0.05191999519469       -0.04143860351442
O           -3.08471716266614       -0.27168589497343       -0.08334997105713
N           -0.98245728338186       -1.18644290067729       -0.03067970731430
C           -1.56031807049108       -2.51338460175769       -0.06597305744922
H            3.91304652607093        1.05159192202055        0.93448122630419
H            3.95760574451861        1.04342817251169       -0.83855623584209
H            2.78787733482555        2.07634635016085        0.01650311185580
H            3.51860352950346       -1.71633342724473       -0.01515741925697
H           -1.50364493957026        3.24821053294816        0.15748158921147
H           -3.59261448755001        0.51875391831411       -0.30489198818573