      -----------------------------------------------------------      
     |                   =====================                   |     
     |                           x T B                           |     
     |                   =====================                   |     
     |                         S. Grimme                         |     
     |          Mulliken Center for Theoretical Chemistry        |     
     |                    University of Bonn                     |     
      -----------------------------------------------------------      

   * xtb version 6.6.1 (8d0f1dd) compiled by 'conda@1efc2f54142f' on 2023-08-01

   xtb is free software: you can redistribute it and/or modify it under
   the terms of the GNU Lesser General Public License as published by
   the Free Software Foundation, either version 3 of the License, or
   (at your option) any later version.
   
   xtb is distributed in the hope that it will be useful,
   but WITHOUT ANY WARRANTY; without even the implied warranty of
   MERCHANTABILITY or FITNESS FOR A PARTICULAR PURPOSE.  See the
   GNU Lesser General Public License for more details.
   
   Cite this work as:
   * C. Bannwarth, E. Caldeweyher, S. Ehlert, A. Hansen, P. Pracht,
     J. Seibert, S. Spicher, S. Grimme, WIREs Comput. Mol. Sci., 2020, 11,
     e01493. DOI: 10.1002/wcms.1493
   
   for GFN2-xTB:
   * C. Bannwarth, S. Ehlert and S. Grimme., J. Chem. Theory Comput., 2019,
     15, 1652-1671. DOI: 10.1021/acs.jctc.8b01176
   for GFN1-xTB:
   * S. Grimme, C. Bannwarth, P. Shushkov, J. Chem. Theory Comput., 2017,
     13, 1989-2009. DOI: 10.1021/acs.jctc.7b00118
   for GFN0-xTB:
   * P. Pracht, E. Caldeweyher, S. Ehlert, S. Grimme, ChemRxiv, 2019, preprint.
     DOI: 10.26434/chemrxiv.8326202.v1
   for GFN-FF:
   * S. Spicher and S. Grimme, Angew. Chem. Int. Ed., 2020, 59, 15665-15673.
     DOI: 10.1002/anie.202004239
   
   for ALPB and GBSA implicit solvation:
   * S. Ehlert, M. Stahn, S. Spicher, S. Grimme, J. Chem. Theory Comput.,
     2021, 17, 4250-4261. DOI: 10.1021/acs.jctc.1c00471
   
   for DFT-D4:
   * E. Caldeweyher, C. Bannwarth and S. Grimme, J. Chem. Phys., 2017,
     147, 034112. DOI: 10.1063/1.4993215
   * E. Caldeweyher, S. Ehlert, A. Hansen, H. Neugebauer, S. Spicher,
     C. Bannwarth and S. Grimme, J. Chem. Phys., 2019, 150, 154122.
     DOI: 10.1063/1.5090222
   * E. Caldeweyher, J.-M. Mewes, S. Ehlert and S. Grimme, Phys. Chem. Chem. Phys.
     2020, 22, 8499-8512. DOI: 10.1039/D0CP00502A
   
   for sTDA-xTB:
   * S. Grimme and C. Bannwarth, J. Chem. Phys., 2016, 145, 054103.
     DOI: 10.1063/1.4959605
   
   in the mass-spec context:
   * V. Asgeirsson, C. Bauer and S. Grimme, Chem. Sci., 2017, 8, 4879.
     DOI: 10.1039/c7sc00601b
   * J. Koopman and S. Grimme, ACS Omega 2019, 4, 12, 15120-15133.
     DOI: 10.1021/acsomega.9b02011
   
   for metadynamics refer to:
   * S. Grimme, J. Chem. Theory Comput., 2019, 155, 2847-2862
     DOI: 10.1021/acs.jctc.9b00143
   
   for SPH calculations refer to:
   * S. Spicher and S. Grimme, J. Chem. Theory Comput., 2021, 17, 1701-1714
     DOI: 10.1021/acs.jctc.0c01306
   
   with help from (in alphabetical order)
   P. Atkinson, C. Bannwarth, F. Bohle, G. Brandenburg, E. Caldeweyher
   M. Checinski, S. Dohm, S. Ehlert, S. Ehrlich, I. Gerasimov, C. Hölzer
   A. Katbashev, J. Koopman, C. Lavigne, S. Lehtola, F. März, M. Müller,
   F. Musil, H. Neugebauer, J. Pisarek, C. Plett, P. Pracht, F. Pultar,
   J. Seibert, P. Shushkov, S. Spicher, M. Stahn, M. Steiner, T. Strunk,
   J. Stückrath, T. Rose, and J. Unsleber
   
 * started run on 2024/06/05 at 19:59:13.205     

           -------------------------------------------------
          |                Calculation Setup                |
           -------------------------------------------------

          program call               : xtb xtbopt.xyz --opt crude --input .xc2 --gfn2
          hostname                   : n-62-31-11
          coordinate file            : xtbopt.xyz
          omp threads                :                     1

   ID    Z sym.   atoms
    1    6 C      1, 3, 5-7, 10, 11, 14
    2    7 N      2, 4, 9, 13
    3    8 O      8, 12
    4    1 H      15-25
########################################################################
[WARNING] Please study the warnings concerning your input carefully
-1- readin_getIntValue: could not parse ''
########################################################################

           -------------------------------------------------
          |                 G F N 2 - x T B                 |
           -------------------------------------------------

        Reference                      10.1021/acs.jctc.8b01176
      * Hamiltonian:
        H0-scaling (s, p, d)           1.850000    2.230000    2.230000
        zeta-weighting                 0.500000
      * Dispersion:
        s8                             2.700000
        a1                             0.520000
        a2                             5.000000
        s9                             5.000000
      * Repulsion:
        kExp                           1.500000    1.000000
        rExp                           1.000000
      * Coulomb:
        alpha                          2.000000
        third order                    shell-resolved
        anisotropic                    true
        a3                             3.000000
        a5                             4.000000
        cn-shift                       1.200000
        cn-exp                         4.000000
        max-rad                        5.000000

q/qsh data taken from xtbrestart
CAMM data taken from xtbrestart

          ...................................................
          :                      SETUP                      :
          :.................................................:
          :  # basis functions                  67          :
          :  # atomic orbitals                  67          :
          :  # shells                           39          :
          :  # electrons                        74          :
          :  max. iterations                   250          :
          :  Hamiltonian                  GFN2-xTB          :
          :  restarted?                       true          :
          :  GBSA solvation                  false          :
          :  PC potential                    false          :
          :  electronic temp.         5000.0000000     K    :
          :  accuracy                    1.0000000          :
          :  -> integral cutoff          0.2500000E+02      :
          :  -> integral neglect         0.1000000E-07      :
          :  -> SCF convergence          0.1000000E-05 Eh   :
          :  -> wf. convergence          0.1000000E-03 e    :
          :  Broyden damping             0.4000000          :
          ...................................................

 iter      E             dE          RMSdq      gap      omega  full diag
   1    -42.6951636 -0.426952E+02  0.125E-05    3.23       0.0  T
   2    -42.6951636 -0.916600E-12  0.793E-06    3.23    2521.2  T
   3    -42.6951636 -0.930811E-12  0.456E-06    3.23    4389.3  T

   *** convergence criteria satisfied after 3 iterations ***

         #    Occupation            Energy/Eh            Energy/eV
      -------------------------------------------------------------
         1        2.0000           -0.8951767             -24.3590
       ...           ...                  ...                  ...
        31        1.9993           -0.6014278             -16.3657
        32        1.9992           -0.5996480             -16.3173
        33        1.9983           -0.5866392             -15.9633
        34        1.9915           -0.5615498             -15.2805
        35        1.9865           -0.5541368             -15.0788
        36        1.9732           -0.5432204             -14.7818
        37        1.9687           -0.5406957             -14.7131 (HOMO)
        38        0.0674           -0.4219834             -11.4828 (LUMO)
        39        0.0147           -0.3974107             -10.8141
        40        0.0021           -0.3667867              -9.9808
        41        0.0000           -0.3038305              -8.2676
        42        0.0000           -0.2735951              -7.4449
       ...           ...                  ...                  ...
        67                          0.5320656              14.4782
      -------------------------------------------------------------
                  HL-Gap            0.1187123 Eh            3.2303 eV
             Fermi-level           -0.4751323 Eh          -12.9290 eV

 SCC (total)                   0 d,  0 h,  0 min,  0.025 sec
 SCC setup                      ...        0 min,  0.000 sec (  0.944%)
 Dispersion                     ...        0 min,  0.000 sec (  1.129%)
 classical contributions        ...        0 min,  0.000 sec (  0.308%)
 integral evaluation            ...        0 min,  0.005 sec ( 19.670%)
 iterations                     ...        0 min,  0.006 sec ( 23.548%)
 molecular gradient             ...        0 min,  0.013 sec ( 53.745%)
 printout                       ...        0 min,  0.000 sec (  0.614%)

         :::::::::::::::::::::::::::::::::::::::::::::::::::::
         ::                     SUMMARY                     ::
         :::::::::::::::::::::::::::::::::::::::::::::::::::::
         :: total energy             -42.195831423757 Eh    ::
         :: gradient norm              0.076477941613 Eh/a0 ::
         :: HOMO-LUMO gap              3.230326098515 eV    ::
         ::.................................................::
         :: SCC energy               -42.695163597677 Eh    ::
         :: -> isotropic ES            0.133237121360 Eh    ::
         :: -> anisotropic ES         -0.008694495517 Eh    ::
         :: -> anisotropic XC          0.017692669786 Eh    ::
         :: -> dispersion             -0.021502593093 Eh    ::
         :: repulsion energy           0.499317750751 Eh    ::
         :: add. restraining           0.000000000000 Eh    ::
         :: total charge               1.000000000000 e     ::
         :::::::::::::::::::::::::::::::::::::::::::::::::::::

      ----------------------------------------------------------- 
     |                   =====================                   |
     |                        A N C O P T                        |
     |                   =====================                   |
     |               Approximate Normal Coordinate               |
     |                Rational Function Optimizer                |
      ----------------------------------------------------------- 

          ...................................................
          :                      SETUP                      :
          :.................................................:
          :   optimization level             crude          :
          :   max. optcycles                   200          :
          :   ANC micro-cycles                  20          :
          :   degrees of freedom                69          :
          :.................................................:
          :   RF solver                   davidson          :
          :   write xtbopt.log                true          :
          :   linear?                        false          :
          :   energy convergence         0.5000000E-03 Eh   :
          :   grad. convergence          0.1000000E-01 Eh/α :
          :   maxmium RF displ.          1.0000000          :
          :   Hlow (freq-cutoff)         0.1000000E-01      :
          :   Hmax (freq-cutoff)         5.0000000          :
          :   S6 in model hess.         20.0000000          :
          ...................................................

generating ANC from model Hessian ...
Using Lindh-Hessian (1995)
 Shifting diagonal of input Hessian by    9.3687386011122968E-003
 Lowest  eigenvalues of input Hessian
    0.000000    0.000000    0.000000    0.000000    0.000000    0.000000
    0.010000    0.010681    0.013023    0.013388    0.014423    0.018545
    0.019951    0.021904    0.025303    0.027423    0.032121    0.042049
 Highest eigenvalues
    2.015465    2.085467    2.171163    2.231158    2.334352    2.414899


........................................................................
.............................. CYCLE    1 ..............................
........................................................................

 iter      E             dE          RMSdq      gap      omega  full diag
   1    -42.6951636 -0.426952E+02  0.194E-06    3.23       0.0  T
   2    -42.6951636  0.923706E-13  0.128E-06    3.23   15655.4  T
   3    -42.6951636 -0.106581E-12  0.887E-07    3.23   22536.4  T
     SCC iter.                  ...        0 min,  0.005 sec
     gradient                   ...        0 min,  0.013 sec
 * total energy  :   -42.1958314 Eh     change       -0.1421085E-12 Eh
   gradient norm :     0.0764780 Eh/α   predicted     0.0000000E+00 (-100.00%)
   displ. norm   :     0.4828247 α      lambda       -0.1836501E-01
   maximum displ.:     0.2572519 α      in ANC's #10, #5, #4, ...

........................................................................
.............................. CYCLE    2 ..............................
........................................................................

 iter      E             dE          RMSdq      gap      omega  full diag
   1    -42.7171007 -0.427171E+02  0.297E-01    3.24       0.0  T
   2    -42.7176717 -0.570955E-03  0.181E-01    3.29       1.0  T
   3    -42.7176986 -0.269102E-04  0.894E-02    3.28       1.0  T
   4    -42.7177213 -0.227115E-04  0.371E-02    3.29       1.0  T
   5    -42.7177397 -0.184038E-04  0.773E-03    3.29       2.6  T
   6    -42.7177401 -0.431131E-06  0.416E-03    3.28       4.8  T
   7    -42.7177402 -0.119974E-06  0.154E-03    3.29      13.0  T
   8    -42.7177402 -0.112343E-07  0.762E-04    3.28      26.2  T
   9    -42.7177403 -0.396593E-08  0.349E-04    3.29      57.3  T
     SCC iter.                  ...        0 min,  0.012 sec
     gradient                   ...        0 min,  0.013 sec
 * total energy  :   -42.2107238 Eh     change       -0.1489239E-01 Eh
   gradient norm :     0.0464211 Eh/α   predicted    -0.1132321E-01 ( -23.97%)
   displ. norm   :     0.6494062 α      lambda       -0.1490125E-01
   maximum displ.:     0.3477201 α      in ANC's #10, #5, #4, ...

........................................................................
.............................. CYCLE    3 ..............................
........................................................................

 iter      E             dE          RMSdq      gap      omega  full diag
   1    -42.7341247 -0.427341E+02  0.354E-01    3.29       0.0  T
   2    -42.7347193 -0.594623E-03  0.211E-01    3.34       1.0  T
   3    -42.7347128  0.654396E-05  0.968E-02    3.32       1.0  T
   4    -42.7347505 -0.377578E-04  0.382E-02    3.34       1.0  T
   5    -42.7347732 -0.226717E-04  0.700E-03    3.33       2.9  T
   6    -42.7347737 -0.507669E-06  0.334E-03    3.33       6.0  T
   7    -42.7347738 -0.718119E-07  0.115E-03    3.33      17.3  T
   8    -42.7347738 -0.108436E-07  0.550E-04    3.33      36.4  T
   9    -42.7347738 -0.221962E-08  0.223E-04    3.33      89.6  T
     SCC iter.                  ...        0 min,  0.012 sec
     gradient                   ...        0 min,  0.013 sec
 * total energy  :   -42.2214808 Eh     change       -0.1075703E-01 Eh
   gradient norm :     0.0252385 Eh/α   predicted    -0.1059276E-01 (  -1.53%)
   displ. norm   :     0.6490574 α      lambda       -0.7359470E-02
   maximum displ.:     0.3962265 α      in ANC's #5, #4, #10, ...

........................................................................
.............................. CYCLE    4 ..............................
........................................................................

 iter      E             dE          RMSdq      gap      omega  full diag
   1    -42.7407629 -0.427408E+02  0.262E-01    3.33       0.0  T
   2    -42.7408433 -0.804540E-04  0.152E-01    3.34       1.0  T
   3    -42.7408410  0.232416E-05  0.363E-02    3.34       1.0  T
   4    -42.7408485 -0.755314E-05  0.846E-03    3.34       2.4  T
   5    -42.7408493 -0.756119E-06  0.366E-03    3.34       5.5  T
   6    -42.7408493 -0.382576E-07  0.183E-03    3.34      11.0  T
   7    -42.7408494 -0.310003E-07  0.681E-04    3.34      29.4  T
   8    -42.7408494 -0.414538E-08  0.313E-04    3.34      63.8  T
     SCC iter.                  ...        0 min,  0.011 sec
     gradient                   ...        0 min,  0.013 sec
 * total energy  :   -42.2277336 Eh     change       -0.6252748E-02 Eh
   gradient norm :     0.0316112 Eh/α   predicted    -0.5229924E-02 ( -16.36%)
   displ. norm   :     0.7460562 α      lambda       -0.7246628E-02
   maximum displ.:     0.4573601 α      in ANC's #5, #4, #3, ...

........................................................................
.............................. CYCLE    5 ..............................
........................................................................

 iter      E             dE          RMSdq      gap      omega  full diag
   1    -42.7450481 -0.427450E+02  0.274E-01    3.35       0.0  T
   2    -42.7451016 -0.535262E-04  0.160E-01    3.34       1.0  T
   3    -42.7450678  0.338250E-04  0.500E-02    3.35       1.0  T
   4    -42.7451126 -0.448128E-04  0.110E-02    3.34       1.8  T
   5    -42.7451145 -0.192038E-05  0.480E-03    3.34       4.2  T
   6    -42.7451145 -0.166377E-07  0.193E-03    3.34      10.4  T
   7    -42.7451146 -0.482517E-07  0.702E-04    3.34      28.5  T
   8    -42.7451146 -0.333925E-08  0.410E-04    3.34      48.8  T
     SCC iter.                  ...        0 min,  0.011 sec
     gradient                   ...        0 min,  0.013 sec
 * total energy  :   -42.2337703 Eh     change       -0.6036741E-02 Eh
   gradient norm :     0.0284554 Eh/α   predicted    -0.5640056E-02 (  -6.57%)
   displ. norm   :     0.6847522 α      lambda       -0.5786402E-02
   maximum displ.:     0.4212580 α      in ANC's #5, #4, #3, ...

........................................................................
.............................. CYCLE    6 ..............................
........................................................................

 iter      E             dE          RMSdq      gap      omega  full diag
   1    -42.7520234 -0.427520E+02  0.252E-01    3.35       0.0  T
   2    -42.7520667 -0.433336E-04  0.148E-01    3.33       1.0  T
   3    -42.7520355  0.311735E-04  0.457E-02    3.34       1.0  T
   4    -42.7520751 -0.395320E-04  0.904E-03    3.33       2.2  T
   5    -42.7520765 -0.146769E-05  0.332E-03    3.33       6.0  T
   6    -42.7520765 -0.266134E-08  0.146E-03    3.33      13.7  T
   7    -42.7520766 -0.226854E-07  0.532E-04    3.33      37.6  T
   8    -42.7520766 -0.325547E-08  0.274E-04    3.33      73.1  T
     SCC iter.                  ...        0 min,  0.011 sec
     gradient                   ...        0 min,  0.013 sec
 * total energy  :   -42.2384430 Eh     change       -0.4672678E-02 Eh
   gradient norm :     0.0183110 Eh/α   predicted    -0.4249788E-02 (  -9.05%)
   displ. norm   :     0.6346452 α      lambda       -0.4119928E-02
   maximum displ.:     0.3919141 α      in ANC's #5, #4, #3, ...

........................................................................
.............................. CYCLE    7 ..............................
........................................................................

 iter      E             dE          RMSdq      gap      omega  full diag
   1    -42.7571416 -0.427571E+02  0.254E-01    3.34       0.0  T
   2    -42.7571680 -0.264375E-04  0.150E-01    3.33       1.0  T
   3    -42.7571553  0.127307E-04  0.304E-02    3.33       1.0  T
   4    -42.7571718 -0.165698E-04  0.753E-03    3.33       2.7  T
   5    -42.7571728 -0.972478E-06  0.329E-03    3.33       6.1  T
   6    -42.7571728 -0.103030E-07  0.112E-03    3.33      17.8  T
   7    -42.7571728 -0.141475E-07  0.474E-04    3.33      42.2  T
   8    -42.7571728 -0.178975E-08  0.264E-04    3.33      75.7  T
     SCC iter.                  ...        0 min,  0.011 sec
     gradient                   ...        0 min,  0.013 sec
 * total energy  :   -42.2416233 Eh     change       -0.3180283E-02 Eh
   gradient norm :     0.0165223 Eh/α   predicted    -0.2889666E-02 (  -9.14%)
   displ. norm   :     0.5473525 α      lambda       -0.2950029E-02
   maximum displ.:     0.2795044 α      in ANC's #5, #4, #3, ...

........................................................................
.............................. CYCLE    8 ..............................
........................................................................

 iter      E             dE          RMSdq      gap      omega  full diag
   1    -42.7656042 -0.427656E+02  0.203E-01    3.33       0.0  T
   2    -42.7656310 -0.267736E-04  0.120E-01    3.32       1.0  T
   3    -42.7656257  0.527114E-05  0.246E-02    3.33       1.0  T
   4    -42.7656330 -0.729732E-05  0.567E-03    3.32       3.5  T
   5    -42.7656337 -0.693765E-06  0.213E-03    3.32       9.4  T
   6    -42.7656337 -0.258516E-07  0.951E-04    3.32      21.0  T
   7    -42.7656337 -0.158095E-08  0.231E-04    3.32      86.4  T
     SCC iter.                  ...        0 min,  0.010 sec
     gradient                   ...        0 min,  0.013 sec
 * total energy  :   -42.2432276 Eh     change       -0.1604287E-02 Eh
   gradient norm :     0.0213527 Eh/α   predicted    -0.1916921E-02 (  19.49%)
   displ. norm   :     0.5728228 α      lambda       -0.2273235E-02
   maximum displ.:     0.3392843 α      in ANC's #5, #4, #3, ...

........................................................................
.............................. CYCLE    9 ..............................
........................................................................

 iter      E             dE          RMSdq      gap      omega  full diag
   1    -42.7576868 -0.427577E+02  0.244E-01    3.32       0.0  T
   2    -42.7577035 -0.166664E-04  0.146E-01    3.32       1.0  T
   3    -42.7577013  0.218558E-05  0.207E-02    3.32       1.0  T
   4    -42.7577084 -0.708988E-05  0.750E-03    3.32       2.7  T
   5    -42.7577085 -0.154813E-06  0.425E-03    3.32       4.7  T
   6    -42.7577086 -0.759885E-07  0.157E-03    3.32      12.8  T
   7    -42.7577087 -0.345409E-07  0.621E-04    3.32      32.2  T
   8    -42.7577087 -0.165214E-08  0.258E-04    3.32      77.5  T
     SCC iter.                  ...        0 min,  0.011 sec
     gradient                   ...        0 min,  0.013 sec
 * total energy  :   -42.2436506 Eh     change       -0.4230072E-03 Eh
   gradient norm :     0.0214675 Eh/α   predicted    -0.1509574E-02 ( 256.87%)
   displ. norm   :     0.1483777 α      lambda       -0.1179166E-02
   maximum displ.:     0.0780420 α      in ANC's #3, #4, #5, ...

........................................................................
.............................. CYCLE   10 ..............................
........................................................................

 iter      E             dE          RMSdq      gap      omega  full diag
   1    -42.7648732 -0.427649E+02  0.950E-02    3.32       0.0  T
   2    -42.7648823 -0.905252E-05  0.562E-02    3.32       1.0  T
   3    -42.7648826 -0.267891E-06  0.114E-02    3.32       1.8  T
   4    -42.7648832 -0.598066E-06  0.484E-03    3.32       4.1  T
   5    -42.7648835 -0.333028E-06  0.230E-03    3.32       8.7  T
   6    -42.7648835 -0.962048E-08  0.705E-04    3.32      28.4  T
   7    -42.7648835 -0.383105E-08  0.299E-04    3.32      66.9  T
     SCC iter.                  ...        0 min,  0.010 sec
     gradient                   ...        0 min,  0.013 sec
 * total energy  :   -42.2440953 Eh     change       -0.4447183E-03 Eh
   gradient norm :     0.0117853 Eh/α   predicted    -0.6025674E-03 (  35.49%)
   displ. norm   :     0.1075389 α      lambda       -0.4346133E-03
   maximum displ.:     0.0695828 α      in ANC's #1, #2, #13, ...

........................................................................
.............................. CYCLE   11 ..............................
........................................................................

 iter      E             dE          RMSdq      gap      omega  full diag
   1    -42.7648147 -0.427648E+02  0.746E-02    3.32       0.0  T
   2    -42.7648152 -0.555634E-06  0.443E-02    3.32       1.0  T
   3    -42.7648151  0.108807E-06  0.409E-03    3.32       4.9  T
   4    -42.7648154 -0.309064E-06  0.167E-03    3.32      12.0  T
   5    -42.7648154 -0.195626E-07  0.730E-04    3.32      27.4  T
   6    -42.7648154 -0.154504E-08  0.206E-04    3.32      97.3  T
     SCC iter.                  ...        0 min,  0.008 sec
     gradient                   ...        0 min,  0.013 sec
 * total energy  :   -42.2441604 Eh     change       -0.6507057E-04 Eh
   gradient norm :     0.0106741 Eh/α   predicted    -0.2198225E-03 ( 237.82%)
   displ. norm   :     0.0775149 α      lambda       -0.2129093E-03
   maximum displ.:     0.0497045 α      in ANC's #5, #4, #10, ...

........................................................................
.............................. CYCLE   12 ..............................
........................................................................

 iter      E             dE          RMSdq      gap      omega  full diag
   1    -42.7643288 -0.427643E+02  0.431E-02    3.32       0.0  T
   2    -42.7643293 -0.525454E-06  0.257E-02    3.32       1.0  T
   3    -42.7643291  0.223302E-06  0.398E-03    3.32       5.0  T
   4    -42.7643294 -0.308190E-06  0.106E-03    3.32      18.9  T
   5    -42.7643294 -0.138037E-07  0.515E-04    3.32      38.8  T
   6    -42.7643294 -0.197234E-08  0.241E-04    3.32      83.0  T
     SCC iter.                  ...        0 min,  0.008 sec
     gradient                   ...        0 min,  0.013 sec
 * total energy  :   -42.2442792 Eh     change       -0.1188429E-03 Eh
   gradient norm :     0.0026767 Eh/α   predicted    -0.1070988E-03 (  -9.88%)
   displ. norm   :     0.0492174 α      lambda       -0.2727747E-04
   maximum displ.:     0.0252715 α      in ANC's #2, #5, #4, ...

   *** GEOMETRY OPTIMIZATION CONVERGED AFTER 12 ITERATIONS ***

------------------------------------------------------------------------
 total energy gain   :        -0.0484478 Eh      -30.4015 kcal/mol
 total RMSD          :         0.9554822 a0        0.5056 Å
 total power (kW/mol):       -10.5999736 (step) -360.0393 (real)
------------------------------------------------------------------------

 ANCopt (total)                0 d,  0 h,  0 min,  0.353 sec
 optimizer setup                ...        0 min,  0.000 sec (  0.119%)
 model hessian                  ...        0 min,  0.006 sec (  1.732%)
 ANC generation                 ...        0 min,  0.001 sec (  0.219%)
 coordinate transformation      ...        0 min,  0.000 sec (  0.024%)
 single point calculation       ...        0 min,  0.341 sec ( 96.542%)
 optimization log               ...        0 min,  0.003 sec (  0.843%)
 hessian update                 ...        0 min,  0.000 sec (  0.044%)
 rational function              ...        0 min,  0.001 sec (  0.288%)

================
 final structure:
================
25
 xtb: 6.6.1 (8d0f1dd)
C            3.30577606906321        1.60830601157440        0.06038364494985
N            2.56439098121917        0.37426987097005        0.09889977557597
C            3.05457791027342       -0.85480709258150        0.19500371433462
N            2.05334533315947       -1.75584487766264        0.19514364490120
C            0.87455278014297       -1.07813745157359        0.09547082910470
C            1.19765706173963        0.27409810478161        0.03561942622183
C            0.16470915860699        1.27663571369802       -0.06758996330226
O            0.31556989558526        2.47272533446913       -0.12932962024634
N           -1.10857363491275        0.67320590982955       -0.08858500885160
C           -2.26281529822642        1.55014301732390       -0.18418040195822
C           -1.31375476481662       -0.67386715615293       -0.03154222846799
O           -2.57116910270458       -1.02598150483512       -0.06404202563911
N           -0.36190832409386       -1.57540168558648        0.05717637343454
C           -2.88861291013847       -2.41598976252784       -0.04702614688601
H            3.90413915613059        1.72125126989469        0.96461052710797
H            3.96945281182384        1.62557662415606       -0.80436212270615
H            2.59847418304110        2.43438576085246       -0.01143871845493
H            4.09662565126236       -1.10036196966452        0.26367183280750
H           -1.89598853550681        2.57350453993278       -0.23864744855255
H           -2.83992285178081        1.31230855029015       -1.07653965384187
H           -2.89841736770477        1.42824210299605        0.69168089029646
H           -2.27972609891223       -2.94550979684207        0.68679375819849
H           -2.72216723991859       -2.84827680974234       -1.03650188246129
H           -3.94427543949269       -2.47249117832616        0.20832917567980
H            2.14849209024821       -2.75974498367711        0.25817324666045

 Bond Distances (Angstroems)
 ---------------------------
C1-N2=1.4401         C1-H15=1.0901        C1-H16=1.0902        C1-H17=1.0899        N2-C1=1.4401         N2-C3=1.3267         
N2-C6=1.3719         C3-N2=1.3267         C3-N4=1.3470         C3-H18=1.0728        N4-C3=1.3470         N4-C5=1.3634         
N4-H25=1.0104        C5-N4=1.3634         C5-C6=1.3916         C5-N13=1.3333        C6-N2=1.3719         C6-C5=1.3916         
C6-C7=1.4432         C7-C6=1.4432         C7-O8=1.2071         C7-N9=1.4092         O8-C7=1.2071         N9-C7=1.4092         
N9-C10=1.4527        N9-C11=1.3638        C10-N9=1.4527        C10-H19=1.0885       C10-H20=1.0890       C10-H21=1.0890       
C11-N9=1.3638        C11-O12=1.3062       C11-N13=1.3140       O12-C11=1.3062       O12-C14=1.4259       N13-C5=1.3333        
N13-C11=1.3140       C14-O12=1.4259       C14-H22=1.0907       C14-H23=1.0925       C14-H24=1.0876       H15-C1=1.0901        
H16-C1=1.0902        H17-C1=1.0899        H18-C3=1.0728        H19-C10=1.0885       H20-C10=1.0890       H21-C10=1.0890       
H22-C14=1.0907       H23-C14=1.0925       H24-C14=1.0876       H25-N4=1.0104        
 C  H  Rav=1.0880 sigma=0.0052  Rmin=1.0728  Rmax=1.0925    10
 C  C  Rav=1.4174 sigma=0.0258  Rmin=1.3916  Rmax=1.4432     2
 N  H  Rav=1.0104 sigma=0.0000  Rmin=1.0104  Rmax=1.0104     1
 N  C  Rav=1.3722 sigma=0.0450  Rmin=1.3140  Rmax=1.4527    10
 O  C  Rav=1.3131 sigma=0.0894  Rmin=1.2071  Rmax=1.4259     3

 selected bond angles (degree)
 --------------------
H15-C1-N2=110.44               H16-C1-N2=110.38               H16-C1-H15=108.79              H17-C1-N2=108.49               
H17-C1-H15=109.41              H17-C1-H16=109.32              C3-N2-C1=127.27                C6-N2-C1=125.04                
C6-N2-C3=107.69                N4-C3-N2=110.19                H18-C3-N2=125.14               H18-C3-N4=124.67               
C5-N4-C3=108.07                H25-N4-C3=126.49               H25-N4-C5=125.44               C6-C5-N4=106.58                
N13-C5-N4=128.21               N13-C5-C6=125.21               C5-C6-N2=107.47                C7-C6-N2=131.73                
C7-C6-C5=120.79                O8-C7-C6=127.05                N9-C7-C6=110.51                N9-C7-O8=122.44                
C10-N9-C7=117.41               C11-N9-C7=123.94               C11-N9-C10=118.65              H19-C10-N9=107.64              
H20-C10-N9=110.07              H20-C10-H19=110.05             H21-C10-N9=110.07              H21-C10-H19=110.01             
H21-C10-H20=108.98             

 selected dihedral angles (degree)
 ---------------------------------
C3-N2-C1-H15=300.49           C3-N2-C1-H16= 60.83           C3-N2-C1-H17=180.58           C6-N2-C1-H15=120.74           
C6-N2-C1-H16=241.08           C6-N2-C1-H17=  0.84           N4-C3-N2-C1=180.29            N4-C3-N2-C6=  0.07            
H18-C3-N2-C1=  0.33           H18-C3-N2-C6=180.11           C5-N4-C3-N2=  0.00            C5-N4-C3-H18=179.94           
H25-N4-C3-N2=180.02           H25-N4-C3-H18=  0.00          C6-C5-N4-C3=359.95            C6-C5-N4-H25=179.92           
N13-C5-N4-C3=179.83           N13-C5-N4-H25=359.80          C5-C6-N2-C1=179.69            C5-C6-N2-C3=359.90            
C7-C6-N2-C1=359.41            C7-C6-N2-C3=179.62            N2-C6-C5-N4=  0.09            N2-C6-C5-N13=180.21           
C7-C6-C5-N4=180.34            C7-C6-C5-N13=  0.45           O8-C7-C6-N2=  0.47            O8-C7-C6-C5=180.15            
N9-C7-C6-N2=180.51            N9-C7-C6-C5=  0.19            C10-N9-C7-C6=179.75           C10-N9-C7-O8=359.79           
C11-N9-C7-C6=359.41           C11-N9-C7-O8=179.45           H19-C10-N9-C7=  0.82          H19-C10-N9-C11=181.14         
H20-C10-N9-C7=120.77          H20-C10-N9-C11=301.09         H21-C10-N9-C7=240.92          H21-C10-N9-C11= 61.24         
           -------------------------------------------------
          |                Final Singlepoint                |
           -------------------------------------------------

          ...................................................
          :                      SETUP                      :
          :.................................................:
          :  # basis functions                  67          :
          :  # atomic orbitals                  67          :
          :  # shells                           39          :
          :  # electrons                        74          :
          :  max. iterations                   250          :
          :  Hamiltonian                  GFN2-xTB          :
          :  restarted?                      false          :
          :  GBSA solvation                  false          :
          :  PC potential                    false          :
          :  electronic temp.         5000.0000000     K    :
          :  accuracy                    1.0000000          :
          :  -> integral cutoff          0.2500000E+02      :
          :  -> integral neglect         0.1000000E-07      :
          :  -> SCF convergence          0.1000000E-05 Eh   :
          :  -> wf. convergence          0.1000000E-03 e    :
          :  Broyden damping             0.4000000          :
          ...................................................

 iter      E             dE          RMSdq      gap      omega  full diag
   1    -42.7643294 -0.427643E+02  0.705E-05    3.32       0.0  T
   2    -42.7643294 -0.227232E-10  0.465E-05    3.32     430.5  T
   3    -42.7643294 -0.456168E-11  0.303E-05    3.32     660.3  T

   *** convergence criteria satisfied after 3 iterations ***

         #    Occupation            Energy/Eh            Energy/eV
      -------------------------------------------------------------
         1        2.0000           -0.8999323             -24.4884
       ...           ...                  ...                  ...
        31        1.9994           -0.6100854             -16.6013
        32        1.9989           -0.6007396             -16.3470
        33        1.9987           -0.5985561             -16.2875
        34        1.9913           -0.5680668             -15.4579
        35        1.9891           -0.5644675             -15.3599
        36        1.9830           -0.5573690             -15.1668
        37        1.9697           -0.5481475             -14.9159 (HOMO)
        38        0.0570           -0.4261764             -11.5969 (LUMO)
        39        0.0124           -0.4016471             -10.9294
        40        0.0016           -0.3693342             -10.0501
        41        0.0000           -0.2746099              -7.4725
        42                         -0.1875673              -5.1040
       ...                                ...                  ...
        67                          0.5419449              14.7471
      -------------------------------------------------------------
                  HL-Gap            0.1219711 Eh            3.3190 eV
             Fermi-level           -0.4820573 Eh          -13.1174 eV

 SCC (total)                   0 d,  0 h,  0 min,  0.023 sec
 SCC setup                      ...        0 min,  0.000 sec (  0.850%)
 Dispersion                     ...        0 min,  0.000 sec (  0.735%)
 classical contributions        ...        0 min,  0.000 sec (  0.313%)
 integral evaluation            ...        0 min,  0.005 sec ( 19.834%)
 iterations                     ...        0 min,  0.005 sec ( 20.138%)
 molecular gradient             ...        0 min,  0.013 sec ( 57.591%)
 printout                       ...        0 min,  0.000 sec (  0.493%)

         :::::::::::::::::::::::::::::::::::::::::::::::::::::
         ::                     SUMMARY                     ::
         :::::::::::::::::::::::::::::::::::::::::::::::::::::
         :: total energy             -42.244279224771 Eh    ::
         :: gradient norm              0.002679138168 Eh/a0 ::
         :: HOMO-LUMO gap              3.319002383866 eV    ::
         ::.................................................::
         :: SCC energy               -42.764329436457 Eh    ::
         :: -> isotropic ES            0.127901348615 Eh    ::
         :: -> anisotropic ES         -0.007374726443 Eh    ::
         :: -> anisotropic XC          0.015584568769 Eh    ::
         :: -> dispersion             -0.022021628353 Eh    ::
         :: repulsion energy           0.519993139350 Eh    ::
         :: add. restraining           0.000000000000 Eh    ::
         :: total charge               1.000000000000 e     ::
         :::::::::::::::::::::::::::::::::::::::::::::::::::::

           -------------------------------------------------
          |                Property Printout                |
           -------------------------------------------------

    * Orbital Energies and Occupations

         #    Occupation            Energy/Eh            Energy/eV
      -------------------------------------------------------------
         1        2.0000           -0.8999323             -24.4884
       ...           ...                  ...                  ...
        25        2.0000           -0.6658106             -18.1176
        26        2.0000           -0.6542622             -17.8034
        27        1.9999           -0.6477249             -17.6255
        28        1.9999           -0.6373617             -17.3435
        29        1.9998           -0.6300503             -17.1445
        30        1.9994           -0.6114502             -16.6384
        31        1.9994           -0.6100854             -16.6013
        32        1.9989           -0.6007396             -16.3470
        33        1.9987           -0.5985561             -16.2875
        34        1.9913           -0.5680668             -15.4579
        35        1.9891           -0.5644675             -15.3599
        36        1.9830           -0.5573690             -15.1668
        37        1.9697           -0.5481475             -14.9159 (HOMO)
        38        0.0570           -0.4261764             -11.5969 (LUMO)
        39        0.0124           -0.4016471             -10.9294
        40        0.0016           -0.3693342             -10.0501
        41        0.0000           -0.2746099              -7.4725
        42                         -0.1875673              -5.1040
        43                         -0.1735567              -4.7227
        44                         -0.1348952              -3.6707
        45                         -0.1121159              -3.0508
        46                         -0.0642192              -1.7475
        47                         -0.0338250              -0.9204
        48                         -0.0199032              -0.5416
       ...                                ...                  ...
        67                          0.5419449              14.7471
      -------------------------------------------------------------
                  HL-Gap            0.1219711 Eh            3.3190 eV
             Fermi-level           -0.4820573 Eh          -13.1174 eV

     #   Z          covCN         q      C6AA      α(0)
     1   6 C        3.691    -0.093    22.468     6.783
     2   7 N        2.831     0.082    19.814     6.611
     3   6 C        3.069     0.058    26.622     8.460
     4   7 N        2.797    -0.052    22.247     7.005
     5   6 C        3.123     0.143    24.721     8.142
     6   6 C        3.131    -0.028    28.491     8.739
     7   6 C        2.768     0.273    22.387     7.749
     8   8 O        0.858    -0.371    21.117     6.161
     9   7 N        2.748    -0.070    22.588     7.059
    10   6 C        3.702    -0.067    21.947     6.698
    11   6 C        2.838     0.303    21.863     7.663
    12   8 O        1.708    -0.188    17.147     5.591
    13   7 N        1.831    -0.295    28.493     7.910
    14   6 C        3.654     0.004    20.820     6.552
    15   1 H        0.925     0.105     1.737     2.061
    16   1 H        0.924     0.106     1.735     2.060
    17   1 H        0.925     0.134     1.505     1.919
    18   1 H        0.926     0.124     1.581     1.966
    19   1 H        0.925     0.119     1.622     1.992
    20   1 H        0.925     0.094     1.838     2.120
    21   1 H        0.925     0.094     1.838     2.120
    22   1 H        0.924     0.090     1.880     2.144
    23   1 H        0.924     0.090     1.881     2.145
    24   1 H        0.925     0.108     1.713     2.047
    25   1 H        0.860     0.237     0.937     1.516

 Mol. C6AA /au·bohr⁶  :       6530.886589
 Mol. C8AA /au·bohr⁸  :     149807.050736
 Mol. α(0) /au        :        123.213373


Wiberg/Mayer (AO) data.
largest (>0.10) Wiberg bond orders for each atom

 ---------------------------------------------------------------------------
     #   Z sym  total        # sym  WBO       # sym  WBO       # sym  WBO
 ---------------------------------------------------------------------------
     1   6 C    3.917 --     2 N    0.984    17 H    0.963    15 H    0.961
                            16 H    0.960
     2   7 N    3.698 --     3 C    1.398     6 C    1.166     1 C    0.984
     3   6 C    3.885 --     2 N    1.398     4 N    1.302    18 H    0.952
     4   7 N    3.609 --     3 C    1.302     5 C    1.183    25 H    0.917
     5   6 C    3.955 --     6 C    1.327    13 N    1.266     4 N    1.183
     6   6 C    3.920 --     5 C    1.327     2 N    1.166     7 C    1.093
     7   6 C    3.949 --     8 O    1.689     6 C    1.093     9 N    1.070
     8   8 O    2.042 --     7 C    1.689     9 N    0.145
     9   7 N    3.585 --    11 C    1.201     7 C    1.070    10 C    0.973
                             8 O    0.145
    10   6 C    3.919 --     9 N    0.973    19 H    0.966    20 H    0.965
                            21 H    0.965
    11   6 C    3.940 --    13 N    1.381    12 O    1.208     9 N    1.201
    12   8 O    2.365 --    11 C    1.208    14 C    0.933
    13   7 N    2.994 --    11 C    1.381     5 C    1.266
    14   6 C    3.882 --    24 H    0.973    22 H    0.973    23 H    0.969
                            12 O    0.933
    15   1 H    0.987 --     1 C    0.961
    16   1 H    0.987 --     1 C    0.960
    17   1 H    0.982 --     1 C    0.963
    18   1 H    0.984 --     3 C    0.952
    19   1 H    0.985 --    10 C    0.966
    20   1 H    0.988 --    10 C    0.965
    21   1 H    0.988 --    10 C    0.965
    22   1 H    0.990 --    14 C    0.973
    23   1 H    0.989 --    14 C    0.969
    24   1 H    0.987 --    14 C    0.973
    25   1 H    0.943 --     4 N    0.917
 ---------------------------------------------------------------------------

Topologies differ in total number of bonds
Writing topology from bond orders to xtbtopo.mol

molecular dipole:
                 x           y           z       tot (Debye)
 q only:        1.807      -1.605       0.161
   full:        2.103      -1.821       0.183       7.085
molecular quadrupole (traceless):
                xx          xy          yy          xz          yz          zz
 q only:       31.399       2.512      -7.158       2.623      -0.697     -24.241
  q+dip:       32.008      -1.360     -11.128       2.776      -0.502     -20.879
   full:       31.281      -0.873     -11.711       2.646      -0.354     -19.570

           -------------------------------------------------
          |                Geometry Summary                 |
           -------------------------------------------------

      molecular mass/u    :      195.1988581
   center of mass at/Å    :        0.1728502      -0.0699141       0.0059637
  moments of inertia/u·Å² :        0.4067698E+03   0.8705593E+03   0.1267753E+04
rotational constants/cm⁻¹ :        0.4144268E-01   0.1936414E-01   0.1329725E-01

 * 26 selected distances

     #   Z          #   Z                                           value/Å
     1   6 C        2   7 N                                       1.4401323
     2   7 N        3   6 C                                       1.3267063
     3   6 C        4   7 N                                       1.3469729
     4   7 N        5   6 C                                       1.3633687
     2   7 N        6   6 C                                       1.3718603
     5   6 C        6   6 C                                       1.3915890
     6   6 C        7   6 C                                       1.4431617
     7   6 C        8   8 O                                       1.2071460
     7   6 C        9   7 N                                       1.4091905
     9   7 N       10   6 C                                       1.4527324 (max)
     9   7 N       11   6 C                                       1.3638033
    11   6 C       12   8 O                                       1.3061898
     5   6 C       13   7 N                                       1.3332571
    11   6 C       13   7 N                                       1.3140196
    12   8 O       14   6 C                                       1.4258974
     1   6 C       15   1 H                                       1.0901475
     1   6 C       16   1 H                                       1.0902067
     1   6 C       17   1 H                                       1.0898818
     3   6 C       18   1 H                                       1.0727890
    10   6 C       19   1 H                                       1.0884841
    10   6 C       20   1 H                                       1.0890012
    10   6 C       21   1 H                                       1.0890285
    14   6 C       22   1 H                                       1.0907000
    14   6 C       23   1 H                                       1.0925377
    14   6 C       24   1 H                                       1.0875764
     4   7 N       25   1 H                                       1.0103669 (min)

 * 5 distinct bonds (by element types)

   Z      Z             #   av. dist./Å        max./Å        min./Å
   1 H    6 C          10     1.0880353     1.0925377     1.0727890
   6 C    6 C           2     1.4173753     1.4431617     1.3915890
   1 H    7 N           1     1.0103669     1.0103669     1.0103669
   6 C    7 N          10     1.3722043     1.4527324     1.3140196
   6 C    8 O           3     1.3130777     1.4258974     1.2071460


optimized geometry written to: xtbopt.xyz


           -------------------------------------------------
          | TOTAL ENERGY              -42.244279224771 Eh   |
          | GRADIENT NORM               0.002679138168 Eh/α |
          | HOMO-LUMO GAP               3.319002383866 eV   |
           -------------------------------------------------

------------------------------------------------------------------------
 * finished run on 2024/06/05 at 19:59:13.650     
------------------------------------------------------------------------
 total:
 * wall-time:     0 d,  0 h,  0 min,  0.445 sec
 *  cpu-time:     0 d,  0 h,  0 min,  0.412 sec
 * ratio c/w:     0.928 speedup
 SCF:
 * wall-time:     0 d,  0 h,  0 min,  0.025 sec
 *  cpu-time:     0 d,  0 h,  0 min,  0.025 sec
 * ratio c/w:     1.000 speedup
 ANC optimizer:
 * wall-time:     0 d,  0 h,  0 min,  0.386 sec
 *  cpu-time:     0 d,  0 h,  0 min,  0.376 sec
 * ratio c/w:     0.974 speedup

