25
 energy: -42.143468903193 gnorm: 0.005855900679 xtb: 6.6.1 (8d0f1dd)
C            3.23393396734875        0.98694348087007        0.03658685703998
N            3.39481954538216       -0.35955938694705        0.01372843246273
C            2.66541368027144       -1.36943053112194       -0.00327833298639
N            1.28475858571359       -1.53228143185480       -0.01251963533171
C            0.18654495491157       -0.72389521483030       -0.00511275467704
C           -0.03320754626636        0.67485582450919       -0.00794865027542
C            0.77727631912637        1.78149996031577       -0.01580739401507
O            0.74458746935179        2.95722084277469       -0.04491555086953
N           -1.43381128931654        0.86127748938665       -0.00334040073566
C           -2.17128800887019        2.10323363055444       -0.00795595486150
C           -2.06398476639499       -0.34091502591611        0.00125969496174
O           -3.23132021427666       -0.59019045281103        0.00741311813835
N           -1.02271661050006       -1.31245575981454       -0.00025051861994
C           -1.33926503866757       -2.71720040984542        0.00207081870277
H            3.64888532997480        1.42059198099506        0.95010651833536
H            3.69688153939730        1.45560658833512       -0.83568482135887
H            2.09540959232429        1.31953932378207        0.01340823301012
H            3.17510008926527       -2.32479171449490       -0.01444486686357
H           -1.49597436734998        2.95203771367693        0.04460321604805
H           -2.76687251887350        2.17119366755227       -0.91924421380061
H           -2.84591471895903        2.12294259436312        0.84835776129505
H           -0.95368764465072       -3.21207551322207        0.89505244830789
H           -0.97115956215972       -3.21113023564816       -0.89890020565357
H           -2.42903928021917       -2.78337465743134        0.01219480847801
H            1.01506200753668       -2.51140422157765       -0.02420698883124
