25
 energy: -42.890586538073 gnorm: 0.135774314620 xtb: 6.6.1 (8d0f1dd)
C            3.25874991610580        1.20729973681609        0.09091027438434
N            2.32214716746031        0.11082799346964        0.03517609510262
C            2.62867055502074       -1.24007587848336        0.03133480047134
N            1.47520350072432       -1.92820029928914        0.01406054236494
C            0.44076883704838       -1.07345058786027       -0.01008302344737
C            0.96064469167983        0.22801558617869       -0.00159430601888
C            0.12006061424331        1.37284951301112       -0.01019809164825
O            0.47698753724852        2.56047863042635       -0.01331702567793
N           -1.26285809219909        1.02817107872171       -0.03232521354536
C           -2.21555180446818        2.12488849728559       -0.04997260845922
C           -1.80053649494080       -0.23999156569246       -0.04925950713004
O           -3.00835759382492       -0.43204514681820       -0.07061840408436
N           -0.90751623858279       -1.36212042982763       -0.03774495714776
C           -1.62102621329754       -2.62457733196400       -0.06342075817901
H            3.75194702379997        1.25777350927118        1.06661820715602
H            4.02664360749220        1.13757745480007       -0.68749341327691
H            2.69013053329496        2.15269427481278       -0.03639298566292
H            3.61499149441893       -1.67665913929399        0.04779941974164
H           -1.64923175229150        3.06369828473617       -0.02550837352211
H           -2.81162295544221        2.06011627240395       -0.95429807145805
H           -2.85538762095579        2.04355018840476        0.82008005528347
H           -1.34514294508656       -3.22612384624747        0.82747442218618
H           -1.32580629707384       -3.20039268119944       -0.96412089101996
H           -2.61562142473588       -2.46564200154384       -0.07338684655800
H            1.40044160314813       -2.93014587120291        0.01864037716323
25
 energy: -42.900114440365 gnorm: 0.042545639557 xtb: 6.6.1 (8d0f1dd)
C            3.25284359966478        1.20595332343691        0.09420689985726
N            2.32624337254988        0.11172473847814        0.03323497550276
C            2.63214822610128       -1.23918310534780        0.03348046293751
N            1.45849449744065       -1.93268712998209        0.01209823893212
C            0.42411414972963       -1.07130156025068       -0.01052052453108
C            0.94683594092577        0.22478048353058       -0.00109563022847
C            0.12100064136828        1.37090630903226       -0.01260149443151
O            0.48039896105310        2.55667649892312       -0.01311743788358
N           -1.26163760503705        1.02626053424977       -0.03313682407649
C           -2.21567661745752        2.12124794008410       -0.04940292284847
C           -1.80286416138592       -0.22440557848579       -0.04863376398358
O           -3.00500523285778       -0.40820354437954       -0.07049804376194
N           -0.91972720144188       -1.34008076979095       -0.03776424853432
C           -1.57385386873774       -2.63406230024828       -0.06273474148642
H            3.75171562354943        1.24698273544130        1.06747066062626
H            4.01218431440126        1.12768587924561       -0.68753955356257
H            2.68377670978716        2.13367329377294       -0.03962924537732
H            3.61012385641318       -1.66835601202936        0.05070176363929
H           -1.64354056761487        3.04947040892937       -0.02649821673347
H           -2.81853513036623        2.06694649137518       -0.95368970915162
H           -2.86418362965407        2.05078791193437        0.82080806866044
H           -1.31277575457498       -3.22708466538723        0.82569501741480
H           -1.29304747801785       -3.20211466896431       -0.96126634626706
H           -2.62584627344207       -2.46124494109154       -0.07275816590380
H            1.38554127638988       -2.93585603156070        0.01555049820890
25
 energy: -42.901283452827 gnorm: 0.009304995880 xtb: 6.6.1 (8d0f1dd)
C            3.24952680570132        1.20637068477254        0.09459304523581
N            2.32847804088782        0.11134851413768        0.02946366389930
C            2.63342560228333       -1.24015776530882        0.03465404390476
N            1.45015019580686       -1.93761828821337        0.01184956353697
C            0.41694920188904       -1.07312712155167       -0.01028071787085
C            0.93864511789769        0.22082498471802        0.00012501451639
C            0.12171191973835        1.36924887957068       -0.01321888624087
O            0.47857672857763        2.55413759277626       -0.01345284105141
N           -1.26261035391374        1.02241495495410       -0.03383870380148
C           -2.21368820116827        2.11954826549276       -0.04949425673645
C           -1.80572191413351       -0.22073178543941       -0.04885733325608
O           -3.00616045034279       -0.40853902183444       -0.07059419328756
N           -0.92623762415082       -1.32819161140600       -0.03751497576007
C           -1.55115083206948       -2.63479827226026       -0.06219398794753
H            3.75197801233201        1.24337611857996        1.06649687119218
H            4.00957489749169        1.12665929386134       -0.68655806567006
H            2.68380409894448        2.12907613091071       -0.03799477930126
H            3.60739239393205       -1.66747055759979        0.05044362130740
H           -1.64177563749646        3.04574596141229       -0.02651866194319
H           -2.82038604716446        2.06759790788070       -0.95299334266172
H           -2.86622957345315        2.05114691700061        0.81997003392968
H           -1.30432809099794       -3.21868761421534        0.82754277682853
H           -1.28400796091576       -3.19397361077827       -0.96206498546431
H           -2.62199516267847       -2.45475058638918       -0.07249376975568
H            1.38280648178891       -2.94093373015571        0.01529058341515
25
 energy: -42.901339766567 gnorm: 0.003821131423 xtb: 6.6.1 (8d0f1dd)
C            3.24923605555995        1.20649249087529        0.09478030825444
N            2.32937028900196        0.11125787114664        0.02732388623673
C            2.63345206397674       -1.24032424905616        0.03554297008251
N            1.44867359089121       -1.93882291711311        0.01204971718406
C            0.41651464310223       -1.07413597047410       -0.01004587462305
C            0.93714961154328        0.21983637463124        0.00071247102402
C            0.12318182958437        1.36985731790599       -0.01351745247970
O            0.47798212035780        2.55425958939487       -0.01343137129932
N           -1.26297480702525        1.02226802500170       -0.03405090514941
C           -2.21332442079376        2.12010920386274       -0.04950533659614
C           -1.80642734779223       -0.22042711253634       -0.04882447516063
O           -3.00716701142650       -0.41026498868816       -0.07059835424362
N           -0.92779349824708       -1.32607964020623       -0.03736853500022
C           -1.54839670808883       -2.63466098115807       -0.06210400782603
H            3.75182492998619        1.24344547006475        1.06705402522851
H            4.01057553886354        1.12724596395200       -0.68601764203515
H            2.68348838326124        2.12915564726833       -0.03824737950016
H            3.60703595644155       -1.66888582670810        0.04955727070958
H           -1.64208181485985        3.04660642256960       -0.02650059488267
H           -2.82057101649744        2.06796114652595       -0.95282390012152
H           -2.86618175818138        2.05140179043355        0.81990133789647
H           -1.30375383124100       -3.21740368672146        0.82745947800053
H           -1.28336189971105       -3.19260198202659       -0.96187324667947
H           -2.62313689374776       -2.45568134881269       -0.07258829005696
H            1.38541364382837       -2.94209236921626        0.01547561805485
25
 energy: -42.901352656457 gnorm: 0.001755190727 xtb: 6.6.1 (8d0f1dd)
C            3.24922581797540        1.20630567179958        0.09494471996834
N            2.32973193205772        0.11123510992078        0.02558455695314
C            2.63307068751046       -1.24028101719464        0.03661192432631
N            1.44812924730609       -1.93910730506887        0.01226312774628
C            0.41676098770416       -1.07462113982108       -0.00987719626387
C            0.93660678628832        0.21958181720281        0.00114821803470
C            0.12441633243957        1.37050967036352       -0.01369342702067
O            0.47756858456405        2.55464566723754       -0.01341302847488
N           -1.26322315257652        1.02248753538522       -0.03416097769093
C           -2.21351617288078        2.12035617507842       -0.04954788238103
C           -1.80653213456985       -0.22043780627932       -0.04884260884012
O           -3.00744202390447       -0.41082487885487       -0.07060128537322
N           -0.92832799230655       -1.32556613898254       -0.03725468217955
C           -1.54825998279028       -2.63435552770699       -0.06203146615585
H            3.75152416257200        1.24338329694906        1.06751225224157
H            4.01120983086430        1.12760900813217       -0.68565757913124
H            2.68361848407996        2.12942191017633       -0.03826624959987
H            3.60651096111232       -1.67005908085830        0.04841179402057
H           -1.64237474476585        3.04693721129054       -0.02649829186164
H           -2.82067696365090        2.06807202001162       -0.95289891600402
H           -2.86623271683668        2.05144296537859        0.81991356042836
H           -1.30387526949338       -3.21699242056894        0.82762437203831
H           -1.28347301953258       -3.19213170215224       -0.96192939791644
H           -2.62384476354214       -2.45667756964307       -0.07260946956047
H            1.38813277116192       -2.94241723087993        0.01562764971386
25
 energy: -42.901356766781 gnorm: 0.001039358458 xtb: 6.6.1 (8d0f1dd)
C            3.24922318872429        1.20603063449699        0.09510028557562
N            2.32985630781937        0.11122037879410        0.02377423596842
C            2.63249859789291       -1.24017755700474        0.03851417798729
N            1.44777479391497       -1.93895231808353        0.01252802236294
C            0.41696767071218       -1.07479927017626       -0.00980686679926
C            0.93630270366860        0.21965192156045        0.00149001130730
C            0.12551746831094        1.37100628877642       -0.01390361650486
O            0.47721968256637        2.55509868471112       -0.01343331234231
N           -1.26349174245723        1.02265990343382       -0.03422035804978
C           -2.21375799441135        2.12040917265289       -0.04957860262987
C           -1.80646802912632       -0.22056599399937       -0.04886128230199
O           -3.00744441013422       -0.41067215113297       -0.07062936755431
N           -0.92851956436613       -1.32564826251151       -0.03717439438187
C           -1.54891355465522       -2.63405116409467       -0.06199319261069
H            3.75110088284930        1.24315125828934        1.06786394908701
H            4.01155545139162        1.12787822669299       -0.68529754205859
H            2.68385150175241        2.12954239257033       -0.03819869238651
H            3.60582709460759       -1.67089157711945        0.04675408724444
H           -1.64246061167832        3.04696048369831       -0.02649840530667
H           -2.82072246531000        2.06817652940357       -0.95297547600644
H           -2.86625548762251        2.05149796105475        0.81994457499040
H           -1.30405939216437       -3.21709490569316        0.82763789432873
H           -1.28368927433458       -3.19217845157506       -0.96192542444705
H           -2.62395676479305       -2.45733630310772       -0.07258945847446
H            1.39077159562904       -2.94239964072123        0.01583847002014
25
 energy: -42.901357889469 gnorm: 0.000435274686 xtb: 6.6.1 (8d0f1dd)
C            3.24922310852958        1.20607041311462        0.09510852138472
N            2.32983123800561        0.11117935235898        0.02371799975372
C            2.63252031708546       -1.24022902831322        0.03941835617012
N            1.44780543870312       -1.93881769365114        0.01256692453376
C            0.41680593405609       -1.07464725751214       -0.00994564617398
C            0.93639669278990        0.21976342387003        0.00138210449073
C            0.12538394401299        1.37083779441403       -0.01394118056031
O            0.47726067412988        2.55506512719721       -0.01345968660319
N           -1.26351392801230        1.02254143942036       -0.03420573821672
C           -2.21369953804570        2.12028838575242       -0.04957331648507
C           -1.80646414375516       -0.22060264117248       -0.04888725980266
O           -3.00738918835655       -0.41048966353059       -0.07063429136796
N           -0.92840658753121       -1.32580987362054       -0.03721329997340
C           -1.54905450928514       -2.63410077960734       -0.06200497792337
H            3.75108134833427        1.24305608021449        1.06782206542177
H            4.01147271287249        1.12786620948195       -0.68526950499511
H            2.68383404596612        2.12943747273994       -0.03813479461121
H            3.60589549604558       -1.67061375569708        0.04608068403819
H           -1.64236559105140        3.04681868704883       -0.02649186012578
H           -2.82071105815942        2.06816048919612       -0.95295595042438
H           -2.86626012723233        2.05148302361963        0.81992830068112
H           -1.30404451045843       -3.21718858084747        0.82760138831697
H           -1.28368068373116       -3.19229515553744       -0.96190048800797
H           -2.62366676044756       -2.45695082636054       -0.07257280924204
H            1.39047332432156       -2.94230640166323        0.01592417673968
25
 energy: -42.865368628710 gnorm: 0.228218511530 xtb: 6.6.1 (8d0f1dd)
C            3.27199359941292        1.25142943391446        0.09740880426629
N            2.35580443813899        0.13636493881438        0.02526992509555
C            2.68241624195037       -1.25181923922873        0.03510883877361
N            1.52892944735918       -1.92882282821585        0.02500019761578
C            0.48552371631081       -1.10642161187802       -0.01241005566511
C            0.99821985621676        0.20704658746942       -0.01625534899324
C            0.14332481361510        1.34070346754766       -0.02281073030020
O            0.43648566586644        2.55055421932235       -0.03045608132677
N           -1.26761993568272        0.99156456946356       -0.03607753862515
C           -2.20331522765724        2.09722050550231       -0.05033595898598
C           -1.77485050034378       -0.27844154710582       -0.05181992833313
O           -2.97857971384405       -0.49101437933640       -0.07002587076194
N           -0.87219381183329       -1.42648606377548       -0.03830082144340
C           -1.75400274269107       -2.64912129369970       -0.06640166543639
H            3.79309637414387        1.29920904649015        1.06021734459143
H            4.02792158973528        1.24286395661090       -0.70379343699052
H            2.66804490154755        2.19557294050590        0.02687465957851
H            3.67282177479697       -1.69736985093281        0.06001019052774
H           -1.62632618197033        3.03490089339986       -0.02595196100239
H           -2.78974976019808        2.02929831422904       -0.95266148834777
H           -2.82334527766013        2.01486019521511        0.82428840961310
H           -1.51940895725080       -3.25834874400759        0.82347374026063
H           -1.50582954224119       -3.22680363420847       -0.97276236804318
H           -2.67316986169543       -2.37254944405616       -0.07125156348891
H            1.46520521014951       -2.93264296372540        0.04461357624324
25
 energy: -42.891068083977 gnorm: 0.065041514642 xtb: 6.6.1 (8d0f1dd)
C            3.25887645206372        1.24318446299537        0.10071825064665
N            2.35453982720772        0.12606503780306        0.02441520642783
C            2.67891362870084       -1.24116736058425        0.03768343872323
N            1.50901875524968       -1.93556512054512        0.02272338639823
C            0.45641361380326       -1.10369773956375       -0.01268384583715
C            0.97437000000605        0.20389798171875       -0.01426863143446
C            0.14317202271970        1.34185613584349       -0.02440034127492
O            0.46033737153905        2.53984625885288       -0.02894228241246
N           -1.25433644128875        0.99182979224017       -0.03688905399546
C           -2.20094154771616        2.09107453590345       -0.04967520941224
C           -1.77912380328078       -0.25604779746450       -0.05063568255792
O           -2.98170539699629       -0.44500183816856       -0.07018114329819
N           -0.89501430060901       -1.39231228196413       -0.03837927995820
C           -1.67502843745153       -2.65905209431993       -0.06532523565623
H            3.78631597211687        1.27869747174888        1.05995219805739
H            4.00513224724884        1.22711908008223       -0.70107479743681
H            2.66360524284639        2.16740586385076        0.01768746739765
H            3.65905366476636       -1.67289118631538        0.06218625223715
H           -1.62350736787112        3.01858358904144       -0.02802794963321
H           -2.80033260000351        2.03631322419949       -0.95325100800214
H           -2.83687600374417        2.02119828403477        0.82635672900336
H           -1.47017183469082       -3.26713625397178        0.82165223494092
H           -1.45631960080525       -3.23602379559080       -0.96969101300286
H           -2.68875419094473       -2.36583909842711       -0.07013619794102
H            1.45375884330929       -2.94058968308476        0.04113737684266
25
 energy: -42.894541439505 gnorm: 0.016459230956 xtb: 6.6.1 (8d0f1dd)
C            3.24895512118732        1.23629247762845        0.10109301480550
N            2.35151257032400        0.11679817567521        0.02211900750171
C            2.67190088229958       -1.23673187917144        0.03970183929488
N            1.49531875013448       -1.94369634672322        0.02150067202261
C            0.44121086650288       -1.10488027638770       -0.01234344584953
C            0.95800626557028        0.19986463980510       -0.01161273352040
C            0.13938734508375        1.34324836438337       -0.02493142753155
O            0.46945612142986        2.53513633161660       -0.02865258036840
N           -1.24927374180015        0.98967871501813       -0.03820512764656
C           -2.19806263793125        2.08820795803941       -0.04969975990158
C           -1.78345540557061       -0.25008790130489       -0.05088582055730
O           -2.98584524024710       -0.43552869832254       -0.06997503826757
N           -0.90732746342597       -1.37116564008479       -0.03823161934396
C           -1.62861244074882       -2.64858530414240       -0.06431697457180
H            3.77993712322735        1.26366750693812        1.05880437134684
H            3.99350883053608        1.21459758333258       -0.70059154271256
H            2.65793573768581        2.15105071189225        0.01668979174697
H            3.64750123063322       -1.66387325065960        0.06246909578357
H           -1.62252682003268        3.01297364896325       -0.02875385111866
H           -2.80578189730428        2.03750015471049       -0.95173868280990
H           -2.84289486660157        2.02164794999939        0.82475213763753
H           -1.43938680699096       -3.25057302645227        0.82349407155070
H           -1.42495693345537       -3.22033784634510       -0.96915733927649
H           -2.67301234198782       -2.36483760166128       -0.06941452785396
H            1.44790186765759       -2.94861897843247        0.03883733846170
25
 energy: -42.894738367018 gnorm: 0.005580325686 xtb: 6.6.1 (8d0f1dd)
C            3.24807770848039        1.23590549103449        0.10132842895839
N            2.35224946237621        0.11499213323422        0.02044861630807
C            2.67019828052927       -1.23585836642154        0.04081255875801
N            1.49231591507273       -1.94668794510846        0.02150599132310
C            0.43964734443606       -1.10541275690436       -0.01212721129654
C            0.95466831122031        0.19894258855411       -0.01048529003512
C            0.13810758952792        1.34457149950087       -0.02539247781396
O            0.47120103989900        2.53491346356701       -0.02863735021814
N           -1.24850377880944        0.99020738828226       -0.03876040965374
C           -2.19733475291865        2.08914866887041       -0.04970701731799
C           -1.78451961807313       -0.25015466740959       -0.05076826734071
O           -2.98730262195075       -0.43547830295565       -0.06986095799371
N           -0.91066999633489       -1.36709283086527       -0.03834695005648
C           -1.61907192365260       -2.64419815953341       -0.06413063354686
H            3.77948751074147        1.26263849993234        1.05912097257361
H            3.99376733221819        1.21374611420502       -0.69999011006958
H            2.65688509001430        2.14989433755352        0.01617330063913
H            3.64541887364740       -1.66548916725521        0.06142969824644
H           -1.62298441784596        3.01429288236185       -0.02879776692063
H           -2.80669471529093        2.03788638497707       -0.95106308903900
H           -2.84337057911549        2.02175382451763        0.82425440115680
H           -1.43473868373468       -3.24779123196865        0.82345526754186
H           -1.42014496728749       -3.21772173851204       -0.96873936739883
H           -2.67411914370114       -2.37011431433459       -0.06948123514241
H            1.44882685672755       -2.95114632700733        0.03870976716010
25
 energy: -42.894761791410 gnorm: 0.002373531132 xtb: 6.6.1 (8d0f1dd)
C            3.24847215309395        1.23603907877220        0.10150301825863
N            2.35287736567477        0.11510048483048        0.01920294338411
C            2.66976551833168       -1.23568247301334        0.04170540181715
N            1.49182692304850       -1.94732134647952        0.02165342270123
C            0.44048754602231       -1.10517313995079       -0.01202238239203
C            0.95429367354114        0.19896263453748       -0.01009104080419
C            0.13762258780273        1.34510583679831       -0.02560049354204
O            0.47140459442077        2.53500862308655       -0.02862049464828
N           -1.24859221750923        0.99092116438133       -0.03897792051261
C           -2.19764812715050        2.08972410958395       -0.04973570729114
C           -1.78449513864058       -0.25070984687383       -0.05084933494693
O           -2.98751361682182       -0.43525045341167       -0.06975669113878
N           -0.91126705462336       -1.36686197916087       -0.03842433370234
C           -1.61773977778122       -2.64278498463703       -0.06405336710482
H            3.77947035040524        1.26280316279719        1.05955824014846
H            3.99449615320768        1.21417633762661       -0.69981929105254
H            2.65677398181489        2.15023713732998        0.01619797425189
H            3.64477449008339       -1.66748364260572        0.06041269638950
H           -1.62327250271309        3.01487943531754       -0.02873749642297
H           -2.80679753558932        2.03808391318095       -0.95108236908752
H           -2.84338777147516        2.02180580627105        0.82422881409836
H           -1.43482669521780       -3.24744374708246        0.82385904423453
H           -1.42022209252204       -3.21740074202939       -0.96900736153917
H           -2.67549792940450       -2.37342688943091       -0.06951564689496
H            1.45039123817719       -2.95156101152342        0.03892324461828
25
 energy: -42.894766954189 gnorm: 0.000948539506 xtb: 6.6.1 (8d0f1dd)
C            3.24871331819101        1.23609181594429        0.10161321888350
N            2.35306240638544        0.11542685217346        0.01822793957093
C            2.66952983784194       -1.23559849019606        0.04271601184989
N            1.49167034925714       -1.94734126313525        0.02176316830841
C            0.44113543513833       -1.10484300973719       -0.01198243824965
C            0.95429972542341        0.19905609391985       -0.00995267494209
C            0.13733629258461        1.34523605637065       -0.02573251816203
O            0.47142608298369        2.53500435837045       -0.02863219980393
N           -1.24869411875895        0.99129860100514       -0.03901082504300
C           -2.19789564811324        2.08990843766011       -0.04976225672102
C           -1.78428778376847       -0.25118680323528       -0.05081968249936
O           -2.98743035765235       -0.43479643859148       -0.06973315946794
N           -0.91135441477582       -1.36715038226736       -0.03845617110892
C           -1.61789656871110       -2.64233785017597       -0.06403407045224
H            3.77941507582988        1.26286408894361        1.05977772559608
H            3.99484869195003        1.21452288748622       -0.69964743905740
H            2.65698658632178        2.15054005102185        0.01630926576016
H            3.64435904403663       -1.66842872697950        0.05948669717698
H           -1.62333658758397        3.01501615666928       -0.02873818918899
H           -2.80672688130302        2.03815583032329       -0.95117416113602
H           -2.84330407204184        2.02185941615411        0.82427132641283
H           -1.43534642012710       -3.24754886674625        0.82398371352134
H           -1.42079675566868       -3.21748928448360       -0.96914546828098
H           -2.67590588578316       -2.37497996092110       -0.06951050115171
H            1.45158876451945       -2.95153210125860        0.03913355700698
25
 energy: -42.894768242735 gnorm: 0.000578338550 xtb: 6.6.1 (8d0f1dd)
C            3.24873106620267        1.23603606755756        0.10169323896563
N            2.35299754177505        0.11562370817067        0.01745936476311
C            2.66938126077620       -1.23560848428569        0.04401412107630
N            1.49149199157537       -1.94724716606583        0.02183340388794
C            0.44132039956836       -1.10458954533876       -0.01202343901887
C            0.95433322070445        0.19908923478713       -0.00994103240089
C            0.13712898608239        1.34519876126449       -0.02584434536933
O            0.47148350073387        2.53493894641030       -0.02864156249988
N           -1.24871393229582        0.99142963854314       -0.03901311706115
C           -2.19797904456477        2.08988173360327       -0.04976731478378
C           -1.78412260198299       -0.25149692824951       -0.05088131742678
O           -2.98735100028030       -0.43436347942566       -0.06973816352931
N           -0.91137910821510       -1.36729564233289       -0.03848090386621
C           -1.61828106865012       -2.64228003064956       -0.06402023026795
H            3.77928809850327        1.26271645710424        1.05989725970713
H            3.99493990254893        1.21462239161644       -0.69947685189169
H            2.65712385545166        2.15059661598254        0.01640090120532
H            3.64415718578875       -1.66858416980586        0.05840802941929
H           -1.62333691794638        3.01498610481933       -0.02872553311744
H           -2.80667182345963        2.03818619552252       -0.95121397838407
H           -2.84326461409550        2.02187094478803        0.82429437063895
H           -1.43552717442238       -3.24758740839020        0.82397407708461
H           -1.42100292952608       -3.21753011053655       -0.96911962019607
H           -2.67567792826716       -2.37537544724959       -0.06949224538073
H            1.45232725017091       -2.95147091952492        0.03935575726766
25
 energy: -42.823043192624 gnorm: 0.357442491577 xtb: 6.6.1 (8d0f1dd)
C            3.28013442871800        1.29698561137127        0.10394460846116
N            2.39260935941541        0.15702873440820        0.01513173752162
C            2.73923133976795       -1.25365254924677        0.03787279951374
N            1.59331683694592       -1.93315528581060        0.03339561055832
C            0.48315336021575       -1.14611127475699       -0.01616341456007
C            1.03552061237939        0.16937517882195       -0.02293959273591
C            0.17049782891780        1.31279168400212       -0.03735610552739
O            0.41173129187225        2.52874895937321       -0.05951690423202
N           -1.26670988786999        0.95536681994546       -0.04145125256097
C           -2.18656102713077        2.07125495950968       -0.05115409105233
C           -1.75592593212964       -0.31924997035478       -0.05514567393726
O           -2.95028191002688       -0.52308459484658       -0.06930533662167
N           -0.86138533675538       -1.48134389272047       -0.04043179627405
C           -1.89810993874327       -2.65032408183153       -0.07261829540879
H            3.83489099733775        1.33946666715170        1.05015823120033
H            4.02189663891352        1.34774362941062       -0.72085356190246
H            2.63904851673043        2.23464499325682        0.09105190871557
H            3.72995399899039       -1.69662294016134        0.07349600499846
H           -1.60115206378506        3.00846096851799       -0.02666650448069
H           -2.76651175733126        1.99866173877976       -0.95071300238649