25
 energy: -42.495140729978 xtb: 6.6.1 (8d0f1dd)
C            3.21638802773489        1.44263776099469        0.14189304526193
N            2.49809509622343        0.19178685385855        0.00049716312293
C            2.89313158580811       -1.07557300943845        0.09894136508051
N            1.80921153262956       -1.90379666000263        0.07160408256644
C            0.64886987341960       -1.14925493605631       -0.04997733808507
C            1.13487581005225        0.16928085840490       -0.11438635514320
C            0.27114132373376        1.30861714978153       -0.13285434464420
O            0.61232320261243        2.48700105141873       -0.17453067821884
N           -1.03031899785995        0.91988012263749       -0.08782421532870
C           -2.03707858633175        1.96543262126747       -0.05124422301708
C           -1.50487692103057       -0.40355820863892       -0.04777940899862
O           -2.71904689487657       -0.41746020287600        0.01819539954307
N           -0.64084914490810       -1.47998459012344       -0.05240684307525
C           -2.89026232946054       -3.01853512204145       -0.13272323496388
H            3.99842225264350        1.37752608373277        0.89575941179605
H            3.67658636685839        1.75704634300897       -0.79805753290302
H            2.48572381285838        2.20650871848168        0.43660553579943
H            3.90771148568967       -1.41478729512990        0.16092242809305
H           -1.48287956130151        2.89923714943114       -0.04918281244104
H           -2.68344126324254        1.89064906644083       -0.92347938539692
H           -2.64358571733756        1.87163081491416        0.84855368218904
H           -2.65357048249542       -3.57080610560484        0.73776884434378
H           -2.69429062893156       -3.37172819042233       -1.11014942984297
H           -3.25460079973881       -2.03536577760667       -0.02074577568885
H            1.87753794421584       -2.90739062566464        0.14998011832536
