25
 energy: 0.000000000000 xtb: 6.6.1 (8d0f1dd)
C            3.23720163006194        1.16630919979326        0.08434469647475
N            2.29877817382611        0.07527477071623        0.03981603040599
C            2.58028210190900       -1.21425402444508        0.03006176031096
N            1.43813958087363       -1.93419271955128        0.00098261760884
C            0.39035688448383       -1.05887472636071       -0.00790371836672
C            0.93510056364412        0.21347819449412        0.01709077491437
C            0.09450143893243        1.40504303904423       -0.00410947031874
O            0.49712751527797        2.54126714362870       -0.00342325688240
N           -1.25076640035757        1.06271879480407       -0.03085478223738
C           -2.21907211982101        2.15522099834493       -0.05001256985998
C           -1.81739487048744       -0.20012725993278       -0.04692818574614
O           -2.99983886758376       -0.37846417018721       -0.07008878229737
N           -0.92618586207120       -1.30210215599479       -0.03682761578324
C           -1.46982264913417       -2.64643102187190       -0.06029820460571
H            3.71247264356769        1.21471455160235        1.06488849150277
H            4.00791497605742        1.03430808813993       -0.67357694370751
H            2.69910007168542        2.09770118228144       -0.09130154882931
H            3.56654120610678       -1.63682992603973        0.04233140067262
H           -1.67107961066214        3.09322851271934       -0.02552706933167
H           -2.82428953597071        2.09428624779827       -0.95318082946668
H           -2.87644029173232        2.07745725625962        0.81450067533302
H           -1.17061996399332       -3.19584890659852        0.83242232437030
H           -1.14560257411436       -3.17511610292205       -0.95688275822323
H           -2.55549792440841       -2.55659984320617       -0.07459039797972
H            1.38130855184625       -2.94313852034425       -0.01389874181052
25
 energy: -5.398536256963 xtb: 6.6.1 (8d0f1dd)
C            3.24391875544579        1.17742255246185        0.08675499663918
N            2.30802286168890        0.09552251987763        0.03770943839390
C            2.59947349200830       -1.23263596933847        0.03004646606377
N            1.42734263051709       -1.94020097998696        0.00080214730902
C            0.39632955416241       -1.05604204519891       -0.00827790276433
C            0.93019240886753        0.22264443961368        0.01523641436638
C            0.10165304021603        1.39610183808055       -0.00527025341789
O            0.49829574341709        2.56195981231087       -0.00465517110367
N           -1.26037536415045        1.05072747830927       -0.03111209551640
C           -2.22055986747172        2.14689568731435       -0.04984942137904
C           -1.82366876130942       -0.20056691376909       -0.04730927962689
O           -3.02031078026973       -0.38294863677159       -0.07040906433978
N           -0.93420605264811       -1.30077967567404       -0.03705272868142
C           -1.47174555439876       -2.64286762219630       -0.06019968629229
H            3.72211081647210        1.22327661555336        1.06883719761894
H            4.01198727579584        1.04257272158281       -0.67623542531596
H            2.69719519253468        2.10208750499586       -0.08880457810838
H            3.57764725088630       -1.65902572436215        0.04268323726558
H           -1.65894333527485        3.07813365095645       -0.02535766887335
H           -2.82596188011527        2.09347903640734       -0.95424927328799
H           -2.87813700736342        2.07685025609568        0.81602083730739
H           -1.16816821860943       -3.19401441714347        0.83190653955391
H           -1.14312802931906       -3.17348733373951       -0.95598340035920
H           -2.55705551753894       -2.55215966847292       -0.07457085360125
H            1.36030601439326       -2.94391652473428       -0.01362657570295
25
 energy: -6.574654224942 xtb: 6.6.1 (8d0f1dd)
C            3.25159091521466        1.18471092240675        0.08946589638847
N            2.31547212724991        0.10712089334225        0.03397771781038
C            2.60944572171200       -1.24699315837393        0.03014516769424
N            1.41418621777154       -1.93873479293514        0.00106353025356
C            0.39954256049454       -1.05106367382368       -0.00909351659900
C            0.92704244840402        0.23108141432824        0.01224963482682
C            0.10749932813004        1.38432313312314       -0.00777938229238
O            0.48559558160279        2.56590792316485       -0.00794394329854
N           -1.27107520867698        1.03909910304156       -0.03186852767111
C           -2.22120676560622        2.13921630011212       -0.04961318667165
C           -1.82711149325008       -0.20217633133481       -0.04780345780832
O           -3.02806477518825       -0.39076195227730       -0.07047879413019
N           -0.94039858824874       -1.29704426599901       -0.03737069207898
C           -1.47174573387523       -2.63797759850639       -0.05994954353313
H            3.73751420631473        1.23423034166071        1.06990283498105
H            4.01885488425628        1.05938895935879       -0.67805183037835
H            2.69908813472988        2.10714458013286       -0.08102301412790
H            3.58042865224849       -1.68150478431657        0.04341084138823
H           -1.64025424836052        3.05934947683404       -0.02515999283862
H           -2.82777218385190        2.09407337912653       -0.95431954149372
H           -2.87917381100461        2.07761643476612        0.81724859287213
H           -1.16553620674954       -3.19056853830558        0.83161168191386
H           -1.14037557823820       -3.17059336217350       -0.95480535093044
H           -2.55709325736503       -2.54660192693269       -0.07447689563953
H            1.33576174022265       -2.94021387424735       -0.01230433248957
25
 energy: -6.621048803276 xtb: 6.6.1 (8d0f1dd)
C            3.25617073861450        1.18718112533795        0.09140484194951
N            2.31981180940588        0.10831660203449        0.03052524499013
C            2.60976369329969       -1.25410490463460        0.02999943303810
N            1.40730185805433       -1.93628928046255        0.00173222123160
C            0.39978713609300       -1.04800512875721       -0.01005583952381
C            0.92773073562157        0.23494288008372        0.00936786547166
C            0.10866270709779        1.38092734932464       -0.01118994730178
O            0.47104300243802        2.56656763537699       -0.01274145116133
N           -1.27766888900916        1.03402005336158       -0.03325288336603
C           -2.22116382693744        2.13655190544186       -0.04951620751621
C           -1.82941248126204       -0.20508367369148       -0.04843320688709
O           -3.02980257972476       -0.39934239867707       -0.07040035235893
N           -0.94161598832170       -1.29495520254639       -0.03772187705982
C           -1.46956862403349       -2.63593659535029       -0.05948835199545
H            3.74984536691407        1.23734635067836        1.06874069429114
H            4.02249978956314        1.07605845754841       -0.68007926546448
H            2.70146702055729        2.11085404752994       -0.06951929785611
H            3.57672770496103       -1.69713821733590        0.04407607805143
H           -1.62650601342518        3.04795540710190       -0.02533334314551
H           -2.82911415005142        2.09675544959713       -0.95357679132752
H           -2.87850510574145        2.08017986509478        0.81822769157560
H           -1.16294835866642       -3.18766956308915        0.83250847443083
H           -1.13756248324157       -3.16868545877550       -0.95408820705409
H           -2.55508613396876       -2.54390696919216       -0.07420346318487
H            1.32035773969932       -2.93751113382743       -0.00994816367969
25
 energy: -6.392419960192 xtb: 6.6.1 (8d0f1dd)
C            3.26246666635105        1.18953698846948        0.09580029856029
N            2.32696031347466        0.10672093224288        0.02323229579602
C            2.60668945770779       -1.26356120888140        0.02885164045367
N            1.39793791502249       -1.93212272542814        0.00337787256208
C            0.39873412501182       -1.04243806632546       -0.01249021215028
C            0.93086521882965        0.24056943712681        0.00262281524627
C            0.10890048855139        1.37945764574947       -0.02037200233911
O            0.44577666178372        2.56892854209871       -0.02567010879678
N           -1.28725537086667        1.02734903317996       -0.03748306291633
C           -2.22045979447103        2.13462292307625       -0.04957873136398
C           -1.83419243576922       -0.21085939105464       -0.05025311373191
O           -3.03263236450695       -0.41467339452437       -0.06999433532120
N           -0.94180997019425       -1.29214634124796       -0.03869134350232
C           -1.46328580220848       -2.63460337184706       -0.05799506822694
H            3.77287681600768        1.23104777202549        1.06595089737521
H            4.02325493115536        1.10960904573430       -0.68697444936153
H            2.70272362051603        2.11619335069114       -0.03838202593057
H            3.56648028518222       -1.72320790225503        0.04538175488800
H           -1.60507233404316        3.03234673236302       -0.02661289684969
H           -2.83226498503286        2.10463932523979       -0.95134975209700
H           -2.87509476284551        2.08734126314704        0.82072721512211
H           -1.15594855522466       -3.18281753005851        0.83565272688500
H           -1.12996310330537       -3.16697588482261       -0.95206473305316
H           -2.54914288076448       -2.54296327171000       -0.07320395111398
H            1.29567052757497       -2.93296530081715       -0.00344783398658
25
 energy: -5.035197618095 xtb: 6.6.1 (8d0f1dd)
C            3.27230692556050        1.19214312341749        0.10826319233099
N            2.34002708511228        0.10164526993902        0.00551293039078
C            2.59779017820206       -1.27941041099164        0.02383455138877
N            1.38058816957750       -1.92418972609016        0.00703252105737
C            0.39476162651853       -1.03000245295467       -0.01934728749136
C            0.93761997535746        0.25156685550297       -0.01532524196106
C            0.10863707386760        1.37991461971200       -0.04646712198617
O            0.40023925605422        2.57529554454410       -0.06261206397571
N           -1.30411075211872        1.01608228729974       -0.05043193746317
C           -2.21828234267463        2.13414702901617       -0.05036415457507
C           -1.84511794594393       -0.22151905612805       -0.05562413542373
O           -3.03965713976200       -0.44290450035870       -0.06847219846099
N           -0.94173630023749       -1.28704401911448       -0.04165292882112
C           -1.44674518477903       -2.63489960519590       -0.05317536255479
H            3.82598096105031        1.19410144985985        1.05938937013138
H            4.01131845452323        1.18759469505993       -0.70830667534993
H            2.69839698775607        2.12513746075809        0.05087861375020
H            3.54226669367504       -1.77365562674995        0.04824648161581
H           -1.56683306492347        3.00749788172565       -0.03188008160377
H           -2.84121860797258        2.12496965904594       -0.94506460406991
H           -2.86348489335270        2.10514156129736        0.82795122598453
H           -1.13574320481257       -3.17275577130790        0.84506702882756
H           -1.10822513094219       -3.16701615271232       -0.94493596870274
H           -2.53342493303141       -2.54924736417874       -0.06971165293216
H            1.24686078123207       -2.92356414922377        0.01422939604158
25
 energy: 4.296553557113 xtb: 6.6.1 (8d0f1dd)
C            3.29320422369172        1.19637769305156        0.14041475943793
N            2.37007893372810        0.08774848377767       -0.03947359036725
C            2.57471209163072       -1.31449750476553        0.01010918519493
N            1.34110541527081       -1.90541629017278        0.01488662482981
C            0.38412015881727       -0.99981238751542       -0.03705792337857
C            0.95426024746753        0.27720545519899       -0.06128489483661
C            0.10892614211098        1.38381372976247       -0.11240647904863
O            0.29770817892404        2.59056909260832       -0.15616737104447
N           -1.34218090860244        0.99190020910211       -0.08307772012975
C           -2.21312873064799        2.13563480555912       -0.05242980131720
C           -1.87151476374408       -0.24540200587741       -0.06836660195420
O           -3.05635635564086       -0.50737640634896       -0.06286911085158
N           -0.94104537640573       -1.27506736480998       -0.04911667107003
C           -1.40483312318009       -2.63742928937214       -0.04043831674215
H            3.95297351976895        1.09205302694957        1.04310244183835
H            3.97458618915301        1.37716399879886       -0.75913632100632
H            2.68509062913687        2.14279461592681        0.27600512838836
H            3.48227645178206       -1.89098784743986        0.05401823411619
H           -1.48292203715240        2.95450368827623       -0.04823401366846
H           -2.86495361119273        2.17380823747489       -0.92805830836826
H           -2.83244543056219        2.14995077596868        0.84717225641238
H           -1.08676347015818       -3.14758182685515        0.87109890936607
H           -1.04955601145005       -3.17037188426185       -0.92418877792381
H           -2.49358603560625       -2.56991745404225       -0.06396568728365
H            1.13245834079702       -2.90063494882190        0.05649794555418
25
 energy: 0.359244569402 xtb: 6.6.1 (8d0f1dd)
C            3.28655004397249        1.19145816474592        0.13798257567789
N            2.36370836086544        0.08612863437103       -0.03424676234020
C            2.57419642365100       -1.30317932374210        0.01337818934502
N            1.35177451978469       -1.90793828403040        0.01295664015984
C            0.38382281611470       -1.00332357333312       -0.03688608937041
C            0.95355854016104        0.27200647064180       -0.05914657887367
C            0.11111767758960        1.38971483822582       -0.10766031217397
O            0.32693346743087        2.58666718173177       -0.15026291671509
N           -1.33282346226492        1.00194657876686       -0.07903426278670
C           -2.21680800846411        2.13923903148248       -0.04867272903560
C           -1.86781903795564       -0.23897885512796       -0.06569010619527
O           -3.05271503123604       -0.49367010423224       -0.05981642989944
N           -0.93918773075142       -1.27682864894903       -0.04958641487816
C           -1.40736641459248       -2.63928373291037       -0.04267677250987
H            3.91962325551341        1.10513259538388        1.04468574848329
H            3.97784222488595        1.33276980557941       -0.73163333010610
H            2.69397584789676        2.12801501898132        0.23008086879954
H            3.48630300630549       -1.86556286650009        0.05089598576553
H           -1.51706210615328        2.97447039688280       -0.04619409932551
H           -2.86634985188610        2.16646463040470       -0.92389663137755
H           -2.83425926239241        2.14261547121704        0.85027409705533
H           -1.09378986977364       -3.14995972266893        0.86981134131524
H           -1.04914802920062       -3.17305476439363       -0.92473815414457
H           -2.49580864182310       -2.57397688056797       -0.07038256372805
H            1.15594593025842       -2.90184345978698        0.04749260300573
25
 energy: 1.525787821531 xtb: 6.6.1 (8d0f1dd)
C            3.28888353849728        1.18175233577304        0.15884372356782
N            2.36946592963454        0.07762742878675       -0.05608644136539
C            2.55995359842247       -1.30340646726569        0.01142694565290
N            1.34276214112631       -1.89976236876775        0.01505458882154
C            0.37611467832206       -0.98850669015171       -0.05162185385973
C            0.96004932044665        0.28071088201875       -0.09071517397557
C            0.11728705940635        1.40248027860671       -0.15163634064889
O            0.32146491698582        2.59327170004988       -0.22231612266780
N           -1.33978988470929        1.00558317316837       -0.09666199940734
C           -2.22288617569185        2.14610572052594       -0.03963409929491
C           -1.87825821590904       -0.23856364009170       -0.07012754758222
O           -3.05854168492610       -0.50417012774998       -0.04694186013344
N           -0.93861986541236       -1.27069663999611       -0.05862260175793
C           -1.38314959320457       -2.64340075852242       -0.03857788464374
H            3.93889973609207        1.05243306321974        1.03866180868055
H            3.95733401020716        1.36730737144848       -0.70403521612203
H            2.70526278012259        2.10387330992507        0.30070380962285
H            3.45640281348383       -1.88832559072310        0.04702796435664
H           -1.53352604124543        2.98193004251038       -0.05318557949670
H           -2.89386176223230        2.18311351472762       -0.89708389782348
H           -2.81304640655298        2.15310447676805        0.87695316452302
H           -1.07169295160807       -3.13328182734642        0.88648684350062
H           -1.00041198081797       -3.18160045866827       -0.90828430093373
H           -2.47217180931642       -2.60178486814957       -0.08215066371443
H            1.12429051681528       -2.88676525792404        0.05955663084865
25
 energy: 4.607247173705 xtb: 6.6.1 (8d0f1dd)
C            3.29008411910969        1.15295468162466        0.20887754024054
N            2.37383947477817        0.06643304675735       -0.10650202656842
C            2.53478597821659       -1.29098474961539        0.01390144439195
N            1.32658337356436       -1.88413233151098        0.02347030380441
C            0.35961435487952       -0.95714306914126       -0.08806184875981
C            0.96717933152961        0.29759254197140       -0.16465980518410
C            0.13406445452749        1.43050483231904       -0.25594066829039
O            0.34175004982178        2.61205792700117       -0.41546484677789
N           -1.34684686362022        1.01845136881121       -0.13813673759656
C           -2.23921084772648        2.16076950682558       -0.01488581607393
C           -1.89899099746797       -0.22681256651939       -0.08020200535307
O           -3.07270953184298       -0.50587797315650       -0.01447821670345
N           -0.94331151321956       -1.25794862261220       -0.08426390225052
C           -1.33296798439887       -2.65165949054728       -0.03093329681908
H            3.97054765709321        0.90977516597225        1.02000626619207
H            3.89347828383556        1.42313319562874       -0.62959720368246
H            2.72935382324428        2.02675112234787        0.47107016692383
H            3.40130237640277       -1.90434281833028        0.03377568838277
H           -1.59491269264293        3.01824825412391       -0.06988718125857
H           -2.96391057263134        2.21150846104236       -0.82725322164097
H           -2.75992353591945        2.16124558158599        0.94542797680658
H           -1.02466731344755       -3.09236858316233        0.92373921692679
H           -0.88475371001525       -3.20298433373021       -0.86711043625993
H           -2.42160902330895       -2.67476774949918       -0.11343401438353
H            1.07344597717447       -2.85137479601450        0.08757652008099
25
 energy: 7.642631597718 xtb: 6.6.1 (8d0f1dd)
C            3.28191536231632        1.12194632318303        0.25003783989715
N            2.36817597858546        0.06515726572625       -0.15690045195509
C            2.52282577579467       -1.26507372299429        0.02701250826521
N            1.32187956333615       -1.87668724295912        0.03724125018894
C            0.34791323956510       -0.93684286557702       -0.11886953533946
C            0.96535521558486        0.30430743641289       -0.22724262536338
C            0.14843824397065        1.45038180871706       -0.33916203535851
O            0.39810302556481        2.61944179630967       -0.58903901388093
N           -1.34140867429850        1.03416855618713       -0.17315354943615
C           -2.24903008419384        2.17314081597855        0.00156926424187
C           -1.91177731183781       -0.20609718641387       -0.09054348269835
O           -3.08321032085299       -0.48200733726376        0.00899099072547
N           -0.95233741277156       -1.25248454196324       -0.10925704666584
C           -1.30041891890757       -2.65752024840964       -0.02301146826998
H            4.00662595145822        0.73931841869431        0.97075342205706
H            3.79409240614529        1.50382052290107       -0.58659984929028
H            2.73163572767352        1.93232583260561        0.68316001025165
H            3.37212626121750       -1.87963234638462        0.01948085168366
H           -1.66447503916308        3.06904357680048       -0.09493306123624
H           -3.01665301709736        2.21996665920869       -0.76885521217533
H           -2.70856997523818        2.15548763196405        0.99425490201003
H           -0.99391526618313       -3.05947351816388        0.95279379132321
H           -0.79942891894192       -3.21942021945830       -0.82803743033202
H           -2.38322389686129       -2.74063775288232       -0.13306454765849
H            1.05757675307058       -2.82360106004668        0.12040837516303
25
 energy: 9.255979064557 xtb: 6.6.1 (8d0f1dd)
C            3.26162154392513        1.09091566244979        0.27271768195051
N            2.34189132705931        0.09071912969995       -0.20083357698442
C            2.53739136288705       -1.22068557139330        0.06262370152218
N            1.33019540634112       -1.88649235401502        0.05277160266421
C            0.34690519976309       -0.93786157278457       -0.13905943290701
C            0.94140062477583        0.29428678750933       -0.26965036188224
C            0.14361018300221        1.44878947795718       -0.38413286888228
O            0.50587852602698        2.60790782561582       -0.68913103191252
N           -1.31563835746661        1.05062403912651       -0.19915865659357
C           -2.24603011753720        2.17913030591399        0.00245975041557
C           -1.90803922201998       -0.17122786094009       -0.10567005347866
O           -3.08883637796075       -0.41250662996627        0.01308167833019
N           -0.97074410135610       -1.26128101679287       -0.13346896640399
C           -1.30120262136295       -2.65848142927845       -0.01509577839487
H            4.03731096261668        0.56231900459086        0.86731873810342
H            3.64920005416095        1.61941584323679       -0.58853188535195
H            2.71219287884107        1.80436288683678        0.92585019039264
H            3.39754046538367       -1.79309129509863        0.00816255180995
H           -1.72694461032851        3.13357171418424       -0.12657374193697
H           -3.03937211391650        2.19575418767755       -0.73392051888166
H           -2.66325181332353        2.13021344385462        1.00651182252941
H           -0.98649285074874       -3.04440506252390        0.96281031454596
H           -0.77659396588933       -3.22492234773374       -0.79694984301829
H           -2.36777243981172       -2.78910009988489       -0.12568036140848
H            1.09799472487462       -2.81892646606963        0.16058294192007
25
 energy: 13.629236878718 xtb: 6.6.1 (8d0f1dd)
C            3.25571711404464        1.07162623749142        0.31871028683334
N            2.32930366866855        0.09786116144653       -0.24308238417825
C            2.52143447020185       -1.21058175315379        0.07484283554809
N            1.31124096002233       -1.87971519793845        0.04684731898545
C            0.33675307130957       -0.92333534670025       -0.17260330037195
C            0.93044498169852        0.30371300035174       -0.34275009709414
C            0.12720904694217        1.46045134534751       -0.49316686633836
O            0.51155585244209        2.61377006457185       -0.80096243650992
N           -1.31671497185075        1.06428811381589       -0.25198254677060
C           -2.25050472564188        2.19264870724798        0.01803692092116
C           -1.91482221071983       -0.15604355155169       -0.12667116878598
O           -3.09664937939433       -0.39282259645060        0.03286891696760
N           -0.97854855721107       -1.25394855371402       -0.16265694939886
C           -1.26793250621843       -2.66308873412555       -0.00495910705020
H            4.05889393147648        0.45725656046440        0.83478440369170
H            3.58940387768578        1.68947054103897       -0.51683858177010
H            2.74315649356604        1.73073289635452        1.07116380544217
H            3.38040070280060       -1.79819186224736       -0.01081020432439
H           -1.74056195439645        3.15248593547797       -0.13804765110379
H           -3.10532740582297        2.21103493138834       -0.67145561708252
H           -2.60193833973438        2.13753472983019        1.06520493004685
H           -0.94597769142795       -3.00764794891806        0.99557973815806
H           -0.69693593436476       -3.24307360124980       -0.75875680128005
H           -2.33302778257520       -2.85033918112022       -0.13925630000243
H            1.06564195643512       -2.81505729548548        0.20299475161434
25
 energy: 21.667365060035 xtb: 6.6.1 (8d0f1dd)
C            3.23530797994274        1.06474913638775        0.34708958670739
N            2.26116164682960        0.17536305666971       -0.24113667474279
C            2.54094612196169       -1.20307433293813        0.12741380045254
N            1.27657836654997       -1.89500487182262       -0.00874511287445
C            0.35263694192429       -0.95967307298825       -0.17985707585197
C            0.85861234286514        0.29174671426508       -0.38786556107435
C           -0.00108477044760        1.41564278064471       -0.60126331418164
O            0.49479994128948        2.58553381919704       -0.71308558166632
N           -1.28889964493321        1.08918543649671       -0.31171417744404
C           -2.22441711296900        2.19907570578669        0.01313968158791
C           -1.86636418446789       -0.12077390075275       -0.15239726653687
O           -3.07602976378719       -0.28808926716639        0.02725043538993
N           -0.99874101220840       -1.26087886917950       -0.19465175536711
C           -1.28447746232400       -2.64953034889811        0.00372080313609
H            4.01293963966425        0.49374002667809        0.75293044338585
H            3.55331144311537        1.73944043899451       -0.43146777991148
H            2.79664083722065        1.61930041894261        1.09865610961777
H            3.48992959574519       -1.75120459376487       -0.05908077471467
H           -1.65692906493784        3.14489364986699       -0.12073317802727
H           -3.13816357461695        2.16508123388442       -0.62779977477691
H           -2.54369214204379        2.12354719632342        1.07208422815605
H           -0.93640789317487       -2.98838480233375        0.99803530076264
H           -0.71715156050145       -3.23308484592917       -0.73622864977445
H           -2.33408685407932       -2.87204316455474       -0.11402204187266
H            1.10579485131888       -2.89652894163736        0.26676222576802
25
 energy: 8.164815128155 xtb: 6.6.1 (8d0f1dd)
C            3.23158480653146        1.06259133679969        0.34969498017484
N            2.29208623503332        0.13041228772904       -0.25265829496441
C            2.51411582080341       -1.21945427524777        0.10005506851177
N            1.28080244582829       -1.87842588404839        0.00938166081663
C            0.34001202783798       -0.94799675493574       -0.19436871689437
C            0.89451818945229        0.29646890742144       -0.39869994665058
C            0.04643550251034        1.43149412646293       -0.61561846003566
O            0.44397607597967        2.59451646457072       -0.80684301111099
N           -1.31042882433346        1.08817941351550       -0.30882820481373
C           -2.22665901851414        2.20536298564028        0.01948657985151
C           -1.88471159375862       -0.14010656411703       -0.14396307236465
O           -3.07151957443400       -0.33128711477323        0.02982287799821
N           -0.98951324096298       -1.24551570431564       -0.20194740113821
C           -1.26152746284473       -2.65123032042474        0.00898730470178
H            4.06079044657730        0.44503740958093        0.75304890967100
H            3.55227094978531        1.76351232580453       -0.40992006639069
H            2.76773507390076        1.63886100061516        1.19125102488799
H            3.42361962413486       -1.78369999575793       -0.08034255096270
H           -1.67748624283653        3.13513875706100       -0.13087987148255
H           -3.13287604564930        2.18658184349481       -0.60873709029799
H           -2.53191317640887        2.13692871020550        1.07820409579304
H           -0.93276521662127       -2.96115204308833        1.02157342775547
H           -0.67732264346774       -3.23993002397115       -0.72203923390561
H           -2.31713479849145       -2.87972926130175       -0.12508626311366
H            1.07812530788382       -2.84752902474770        0.26546015011077
25