25
 energy: 0.000000000000 xtb: 6.6.1 (8d0f1dd)
C            3.23720163006194        1.16630919979326        0.08434469647475
N            2.29877817382611        0.07527477071623        0.03981603040599
C            2.58028210190900       -1.21425402444508        0.03006176031096
N            1.43813958087363       -1.93419271955128        0.00098261760884
C            0.39035688448383       -1.05887472636071       -0.00790371836672
C            0.93510056364412        0.21347819449412        0.01709077491437
C            0.09450143893243        1.40504303904423       -0.00410947031874
O            0.49712751527797        2.54126714362870       -0.00342325688240
N           -1.25076640035757        1.06271879480407       -0.03085478223738
C           -2.21907211982101        2.15522099834493       -0.05001256985998
C           -1.81739487048744       -0.20012725993278       -0.04692818574614
O           -2.99983886758376       -0.37846417018721       -0.07008878229737
N           -0.92618586207120       -1.30210215599479       -0.03682761578324
C           -1.46982264913417       -2.64643102187190       -0.06029820460571
H            3.71247264356769        1.21471455160235        1.06488849150277
H            4.00791497605742        1.03430808813993       -0.67357694370751
H            2.69910007168542        2.09770118228144       -0.09130154882931
H            3.56654120610678       -1.63682992603973        0.04233140067262
H           -1.67107961066214        3.09322851271934       -0.02552706933167
H           -2.82428953597071        2.09428624779827       -0.95318082946668
H           -2.87644029173232        2.07745725625962        0.81450067533302
H           -1.17061996399332       -3.19584890659852        0.83242232437030
H           -1.14560257411436       -3.17511610292205       -0.95688275822323
H           -2.55549792440841       -2.55659984320617       -0.07459039797972
H            1.38130855184625       -2.94313852034425       -0.01389874181052
25
 energy: -5.371981052126 xtb: 6.6.1 (8d0f1dd)
C            3.24516870617299        1.18111957899749        0.08676638404500
N            2.31045310177679        0.09772345280215        0.03790443712970
C            2.60361848648771       -1.22991688529960        0.03029641333662
N            1.43236818800333       -1.93939159055448        0.00108829892761
C            0.39914689208780       -1.05758686845802       -0.00813800211505
C            0.93230378459927        0.22225020639708        0.01539311582431
C            0.10352986225981        1.39537099617648       -0.00520801191786
O            0.49935382727528        2.56155611448231       -0.00460835050755
N           -1.25795201598365        1.04887497441763       -0.03110107540133
C           -2.21906923929788        2.14401256024691       -0.04991418424920
C           -1.82059871838573       -0.20259102523707       -0.04726211534718
O           -3.01713392695764       -0.38515489086247       -0.07043998562271
N           -0.93241681838676       -1.30350379240469       -0.03698884038040
C           -1.48092118787704       -2.64314320387088       -0.06044780955968
H            3.72430990379093        1.22762494392717        1.06839943987117
H            4.01312283117769        1.04791033024901       -0.67667686162448
H            2.69757035193117        2.10541897452814       -0.08805907071766
H            3.58265975592553       -1.65442593270128        0.04306316406268
H           -1.65846128867876        3.07579898376028       -0.02545580743579
H           -2.82426641069989        2.08962313051873       -0.95436291585606
H           -2.87644927853790        2.07301648644082        0.81599617153344
H           -1.18520655374915       -3.19837310736029        0.83153755326532
H           -1.16061359509351       -3.17719775496348       -0.95690727602029
H           -2.56573168205441       -2.54691299967604       -0.07461587391258
H            1.36742969215022       -2.94307407938388       -0.01322490118070
25
 energy: -6.405503795367 xtb: 6.6.1 (8d0f1dd)
C            3.25462751805571        1.19704377185881        0.08955810845057
N            2.32313905314436        0.11416171487244        0.03458821464654
C            2.62345318158689       -1.23988102145064        0.03102231000267
N            1.43006261380165       -1.93747517057021        0.00205280240086
C            0.40871594009052       -1.05721319453980       -0.00859878441696
C            0.93302320691481        0.22885732669400        0.01271258630329
C            0.11380351396733        1.38035761351107       -0.00762403023560
O            0.48925576059959        2.56391674032167       -0.00786244561667
N           -1.26389722512666        1.03198245563334       -0.03183567090543
C           -2.21651680763524        2.12894113258373       -0.04984815691177
C           -1.81783128988931       -0.20899105688264       -0.04765920659913
O           -3.01932743514111       -0.39731628173748       -0.07059982544366
N           -0.93478517581996       -1.30619978567945       -0.03714525493016
C           -1.50012408336857       -2.63760225166884       -0.06081720014199
H            3.74414397058534        1.24911564068534        1.06841510472702
H            4.02137739438507        1.07802800424287       -0.67991267862073
H            2.69820874194510        2.11777344487880       -0.07820437464668
H            3.59715212702690       -1.66825536942479        0.04475220766244
H           -1.63765350309766        3.05020981429371       -0.02551487566911
H           -2.82241794086846        2.08092081750970       -0.95479049737995
H           -2.87388974870353        2.06461190630403        0.81720127085412
H           -1.21822684101043       -3.20309000231533        0.83035232522696
H           -1.19454142990079       -3.18102999258268       -0.95793816871548
H           -2.58392034680949       -2.52090376141903       -0.07437312352997
H            1.35838347320417       -2.93893389294660       -0.01089674036387
25
 energy: -5.753561015632 xtb: 6.6.1 (8d0f1dd)
C            3.26181011003762        1.21504334343408        0.09209448957693
N            2.33732382979077        0.12369816775619        0.03104436933467
C            2.64144380751278       -1.24378248887882        0.03207157601887
N            1.43867155991265       -1.93523004233044        0.00418276573726
C            0.42015981178874       -1.06208251562315       -0.00906961137624
C            0.93965458996730        0.22962213862870        0.00973065116835
C            0.12346432452986        1.36813143988440       -0.01157099656457
O            0.47616147696521        2.56041182146369       -0.01365657453500
N           -1.26476987373382        1.01564288043654       -0.03340413935339
C           -2.21109284967409        2.11221174410143       -0.05006147395288
C           -1.81038481493330       -0.22032987133959       -0.04822187640693
O           -3.01297525829441       -0.41422334688423       -0.07063846771569
N           -0.93013841917648       -1.31401185833813       -0.03725037682240
C           -1.52826716617477       -2.63206918737174       -0.06141385973703
H            3.76584133236682        1.27237620600250        1.06502650766085
H            4.02634119679930        1.12311122189941       -0.68551610266270
H            2.69518043398664        2.13374587453157       -0.06014979083326
H            3.61289848214642       -1.67543287017120        0.04742328763708
H           -1.61568620105858        3.02294382847551       -0.02621897708168
H           -2.81800678478492        2.06774273452207       -0.95458792578256
H           -2.86730698728139        2.05168126114162        0.81824676707726
H           -1.27219741212757       -3.21116331544876        0.82943847682475
H           -1.25016595161459       -3.18765451338015       -0.96073808250097
H           -2.60992776271109       -2.47487236163660       -0.07355695132020
H            1.36418319369711       -2.93648168870283       -0.00616978824322
25
 energy: 0.829961162957 xtb: 6.6.1 (8d0f1dd)
C            3.27510824172074        1.26689100185819        0.09962863402135
N            2.37408260228317        0.14704985695356        0.01965163157260
C            2.68634246564230       -1.25214493771032        0.03535317257305
N            1.46437509770152       -1.92842964182720        0.01168061640258
C            0.44834170001085       -1.07862340149886       -0.01046897187688
C            0.95688482083409        0.22874166032646        0.00004973095951
C            0.14727942585221        1.33590915276217       -0.02508151765590
O            0.43190928627476        2.54853107070909       -0.03344612493826
N           -1.26880867352514        0.97014412098410       -0.03906101723469
C           -2.18826525397507        2.07435099065984       -0.05105862678055
C           -1.79220071477535       -0.25538335943910       -0.05014271471168
O           -2.99715504722185       -0.46143026802897       -0.07051548224731
N           -0.91738705364408       -1.34248615316639       -0.03740680424633
C           -1.60348591809551       -2.62639340998284       -0.06305528463380
H            3.82641493647010        1.33112626850247        1.05222886246610
H            4.02795664322127        1.26220254253457       -0.70689225855027
H            2.67711277986518        2.18054471178758        0.00353723638298
H            3.65185042522725       -1.69445147792847        0.05606644377818
H           -1.53453525019538        2.94811002323857       -0.03005915173569
H           -2.79966621718046        2.04882701082980       -0.95344720073472
H           -2.84011871072466        2.03494820821300        0.82208654874289
H           -1.41783039738906       -3.24149202675853        0.82558612488925
H           -1.40082670947508       -3.21331960661147       -0.96759577939928
H           -2.67825354324971       -2.36406596277296       -0.07103564167704
H            1.38308973228409       -2.93012777146223        0.01043147078121
25
 energy: 10.484522961639 xtb: 6.6.1 (8d0f1dd)
C            3.28113529094236        1.31089491365314        0.10591908280360
N            2.40518374825984        0.16284158792782        0.01209544132246
C            2.72758744797896       -1.25385209718369        0.03736338017230
N            1.49783056117660       -1.92799993040534        0.01848451774264
C            0.47409345629829       -1.09785564859946       -0.01181923362927
C            0.97611097914770        0.22075754966488       -0.00749992634996
C            0.17085229126632        1.31246795014103       -0.03756388062731
O            0.41688099374677        2.53475039127523       -0.05152529531583
N           -1.26144119139839        0.93683202484604       -0.04497495291657
C           -2.17006866712553        2.03996578171055       -0.05230624242134
C           -1.77261258008032       -0.28154077032077       -0.05206319467612
O           -2.98026747896043       -0.48857153505390       -0.07008065792110
N           -0.90412269661497       -1.36905704618859       -0.03788024655820
C           -1.67433819957390       -2.61974331005153       -0.06450754126615
H            3.87219909331995        1.37581928140031        1.03969140655372
H            4.01805950900075        1.38098658650158       -0.72650857562491
H            2.65243236787562        2.21603489009278        0.06170620575904
H            3.69182528749454       -1.69841361117037        0.06361425380736
H           -1.48879561183530        2.89369107754420       -0.03415487414751
H           -2.78464435571417        2.01997667748726       -0.95223522950194
H           -2.81595141280572        2.00687866039590        0.82522706841622
H           -1.55607033484935       -3.26451670519211        0.82269570452703
H           -1.54436209496612       -3.23177921148059       -0.97465953204872
H           -2.73863939335410       -2.25933840711222       -0.06798822627983
H            1.41933765870677       -2.93020049771007        0.02600444432770
25
 energy: 23.040640003251 xtb: 6.6.1 (8d0f1dd)
C            3.28156096579967        1.35633172940412        0.11227085339863
N            2.43557546371394        0.17364395395792        0.00371371715341
C            2.76623606318641       -1.25107210564310        0.03965140909040
N            1.53909717275407       -1.92928412507528        0.02697373454449
C            0.49766390942181       -1.12115570810954       -0.01354074451448
C            0.99813154942005        0.20711623876033       -0.01623060801234
C            0.19296885726212        1.29382462227648       -0.05224474985482
O            0.40499332096620        2.51693468549882       -0.07235332853138
N           -1.25170351370221        0.90583464606303       -0.05224879816994
C           -2.14803544932617        2.01042994554381       -0.05396170703666
C           -1.75414884614051       -0.30993437811975       -0.05446409573354
O           -2.96344150744557       -0.51260026869958       -0.06950598736972
N           -0.88923327553924       -1.40239850139213       -0.03845860776672
C           -1.74614626913805       -2.61931860858686       -0.06599794908308
H            3.91758617455250        1.41455061689131        1.02292902402991
H            3.99542227289471        1.51178418607234       -0.75009218933139
H            2.61931026924657        2.25151169856560        0.13160675764062
H            3.73083242832133       -1.69777078249693        0.07239011704573
H           -1.43990852530846        2.84170030456108       -0.03979589313395
H           -2.76568002844247        1.99856355658102       -0.95064662973000
H           -2.78556160050092        1.98678146849683        0.82893440849325
H           -1.70000924676386       -3.29148780614931        0.81923148056851
H           -1.69421907281203       -3.25345567583557       -0.98183747140142
H           -2.79563166816653       -2.15874864375635       -0.06435360236964
H            1.46655522368279       -2.93275244663622        0.04506475622143
25
 energy: 33.395468705502 xtb: 6.6.1 (8d0f1dd)
C            3.25625544680569        1.36529364917792        0.10953035019330
N            2.44400004131134        0.12132263429498       -0.00468907054173
C            2.73708153654474       -1.20663766198078        0.04630195710320
N            1.61488358995378       -1.93598366944343        0.03969596496555
C            0.48096713389257       -1.14342307495130       -0.01617941191895
C            1.03992044927703        0.16437934167911       -0.02561489136146
C            0.16864532086893        1.35155831416590       -0.06406695594482
O            0.40065518471635        2.48681177828066       -0.08638638457021
N           -1.23912630607593        0.92102085316382       -0.05875559688729
C           -2.12913907958230        2.03715292574424       -0.05614510038161
C           -1.76727798064776       -0.34516954916354       -0.05729996275375
O           -2.95592320243126       -0.53582837005003       -0.06960827950373
N           -0.85414303403842       -1.45578173258032       -0.03802486013265
C           -1.75810710773523       -2.65727911041361       -0.06661192186654
H            3.92006620229176        1.38057899992561        0.99164119084215
H            3.92971020848270        1.60174479459172       -0.76997420256103
H            2.58087371606083        2.25412374205084        0.20107115885165
H            3.71329107277393       -1.67322835704247        0.08081432462504
H           -1.42084673961344        2.83655208294691       -0.04830524034307
H           -2.73858422211225        2.04508617258825       -0.94858305583557
H           -2.74820035862005        2.03736185649671        0.83072751983950
H           -1.76657046241975       -3.32002483258651        0.81718170674064
H           -1.76392459609761       -3.27804858334172       -0.98541147785890
H           -2.77467233344308       -2.11718730902888       -0.06047104391706
H            1.54238018777354       -2.94536629235201        0.06619717936463
25
 energy: 28.621253258920 xtb: 6.6.1 (8d0f1dd)
C            3.25677456666758        1.39097896024331        0.11512218365382
N            2.45397122622919        0.15570544932289       -0.00841110757514
C            2.77691762634629       -1.21459929578642        0.04733637505035
N            1.61177485548347       -1.93613867858927        0.04208673022929
C            0.50415730931347       -1.15407253877683       -0.01605224164432
C            1.03013300784164        0.17146302564685       -0.02993391561035
C            0.20056093123264        1.30337849353027       -0.06903486411603
O            0.40790822885313        2.49931304519701       -0.10021929276305
N           -1.22433160233626        0.88929149452922       -0.06081057037382
C           -2.11537144318907        2.00671537353957       -0.05599141748934
C           -1.74205037469895       -0.34238666136477       -0.05825824962289
O           -2.94658741291059       -0.51369072727757       -0.06900902589181
N           -0.86350395372183       -1.45966987775112       -0.03900822417404
C           -1.80316480952256       -2.64725914931472       -0.06811751234750
H            3.94249898646778        1.40407230634933        0.98959601055825
H            3.91842840476128        1.64553101255015       -0.78029807235013
H            2.56395286064130        2.26887775651715        0.22719949831852
H            3.74931880584000       -1.66437255185660        0.08527931778767
H           -1.40392868225888        2.82061213128956       -0.04966553050183
H           -2.73490597530511        2.01364603935572       -0.94743991472692
H           -2.73813369426551        2.00490582881178        0.83396726844490
H           -1.83633358307716       -3.32915467241257        0.81276796446709
H           -1.83666795777827       -3.28300319475430       -0.98801960302201
H           -2.81774887207360       -2.09771356023612       -0.06001868519427
H            1.55854621939613       -2.94340140659040        0.07396677504083
25
 energy: 41.048253558505 xtb: 6.6.1 (8d0f1dd)
C            3.24241736180994        1.43438299941976        0.12288499610550
N            2.47077722285777        0.17694269559273       -0.01575654347974
C            2.81475736600886       -1.19400526547365        0.05393437565384
N            1.64934194597395       -1.93312155540211        0.05113377270627
C            0.52536146513954       -1.17973251443577       -0.01852258559409
C            1.03946777729306        0.15939325747142       -0.04343732584798
C            0.23874745271887        1.26805722331658       -0.08604366321015
O            0.43652443264797        2.47826447012292       -0.12672748592232
N           -1.18883357972951        0.85823990276958       -0.06772868778470
C           -2.08486716289527        1.97052695401588       -0.05497222097230
C           -1.71036415165165       -0.35286204019769       -0.06086031076539
O           -2.92509314462098       -0.48545692364838       -0.06693676598288
N           -0.86073083977326       -1.49210048339447       -0.04121277587361
C           -1.88598586402087       -2.64941417958393       -0.07180669993646
H            3.97157797831354        1.43408346614724        0.96813457710526
H            3.86520585354482        1.74567633337112       -0.79421895510561
H            2.52600790529341        2.29018451277206        0.29044770909946
H            3.79250675431077       -1.62905408140005        0.09675476474254
H           -1.37522521188310        2.78936739785395       -0.05476373123843
H           -2.71309997784660        1.97224067938181       -0.94119733045421
H           -2.69919410883573        1.96282662666303        0.84161812308822
H           -1.97815461147350       -3.34931405480445        0.80115205987481
H           -1.98502337457357       -3.29347316663812       -0.99248221128864
H           -2.87984715712083       -2.05173703123126       -0.05767939510475
H            1.62594033644848       -2.94088662051607        0.09532020633260
25
 energy: 45.690022989979 xtb: 6.6.1 (8d0f1dd)
C            3.20487936254931        1.45542777605684        0.12952902067026
N            2.45642114446187        0.20688300997231       -0.01974414560331
C            2.83643610127113       -1.13178008262554        0.06914652036057
N            1.67827821524001       -1.92454169547455        0.05814208181993
C            0.53581967468738       -1.20733295317288       -0.02254207273160
C            1.02572776699545        0.14817680574207       -0.06470353293395
C            0.27791286094666        1.22192091014479       -0.10238458987423
O            0.53180786776918        2.46943519730362       -0.15499178242244
N           -1.10843854214979        0.84088514781815       -0.07201432130311
C           -2.04884156643108        1.93596932650038       -0.04863461997947
C           -1.66240264207997       -0.33386908461781       -0.06258150975467
O           -2.89956022537324       -0.36582262559228       -0.06099424051815
N           -0.88297871735959       -1.52470807409138       -0.04671080691171
C           -1.97439447170612       -2.66409368426218       -0.07915946817195
H            3.95213437050494        1.43455913648008        0.93405722035573
H            3.75839911197811        1.74293180455584       -0.76875168791172
H            2.50698334776420        2.26117076326410        0.31818111214526
H            3.83077098646184       -1.52507413388013        0.10739201507262
H           -1.39806342030974        2.81707188655127       -0.05697979011415
H           -2.69340705819834        1.90675468867169       -0.92790455226235
H           -2.65693464337454        1.89196884806675        0.85504847632145
H           -2.07946023929689       -3.33971995113078        0.77288165859067
H           -2.09116138597284       -3.26718839716576       -0.98525441792315
H           -2.92377213275707       -2.12934051832798       -0.05782814764220
H            1.73605890231518       -2.93065549861448        0.11383547686890
25
 energy: 59.376225766958 xtb: 6.6.1 (8d0f1dd)
C            3.18974762150550        1.49064027025428        0.13649505116828
N            2.47856913015017        0.20991719476632       -0.02610209899511
C            2.87140309046610       -1.10978106940446        0.07977048317002
N            1.73372472848334       -1.92834602985182        0.07226109099452
C            0.55662368507298       -1.24122314709210       -0.02564863148052
C            1.04944808898174        0.12033438567040       -0.07807197743182
C            0.29395213484764        1.21709092163089       -0.12723402784069
O            0.55346215753140        2.45961139766956       -0.18446296917147
N           -1.07839897862565        0.82545647683756       -0.08420372217334
C           -2.01742535860310        1.91750684625574       -0.05078612779915
C           -1.63852661276023       -0.35684092640447       -0.06548163506515
O           -2.87668879102712       -0.35817972466076       -0.05795854917905
N           -0.87582671927573       -1.57031975173844       -0.04954350023232
C           -2.05249386744683       -2.67802287543529       -0.08302787239471
H            3.99171799514429        1.44252647758456        0.90266990170255
H            3.68011753982439        1.86790463090857       -0.80567596064126
H            2.44916484816721        2.27149384759206        0.42105540515102
H            3.87483021595551       -1.48635334043815        0.12244859555527
H           -1.36821208292718        2.79627071029669       -0.06638674011948
H           -2.66755807508835        1.87720623277589       -0.92323283273663
H           -2.61073595043553        1.86324155650485        0.86092501839718
H           -2.22758722520363       -3.36702932686830        0.76338320921828
H           -2.24944435793814       -3.28038093185320       -0.99521569225690
H           -2.97457420978634       -2.06016277244203       -0.05074472443433
H            1.82692566092359       -2.93353245038621        0.14180220274210
25
 energy: 72.941477599192 xtb: 6.6.1 (8d0f1dd)
C            3.17357055965566        1.50594986292277        0.14154411799637
N            2.49362662434241        0.20693699808309       -0.02850961724274
C            2.90134905277831       -1.08028678176629        0.10012850710397
N            1.80183647622595       -1.93121546754683        0.08624971067731
C            0.58299395140678       -1.27086332148526       -0.03332116021064
C            1.07956830468659        0.08875777950540       -0.09627189767544
C            0.28151605338749        1.23710066381464       -0.16122147635056
O            0.58894188790890        2.44921336978297       -0.20616783298273
N           -1.05204987696102        0.83283264418215       -0.10032086846580
C           -1.99440687829735        1.91416870536371       -0.04927888024221
C           -1.61931806962805       -0.38711165695169       -0.06706255590218
O           -2.84250484600947       -0.38445570237852       -0.04703669299359
N           -0.86924793056204       -1.61052492215425       -0.05612391484592
C           -2.13211887162770       -2.68877993631598       -0.09043260385340
H            4.00156143812969        1.44956454154367        0.86368097456293
H            3.58988852797139        1.92448084012840       -0.80681436116614
H            2.43110622098502        2.25263545536663        0.48519807192697
H            3.92201667724999       -1.41998271356061        0.14018981052070
H           -1.37276858555513        2.80244732106388       -0.07018706593060
H           -2.64963418833915        1.83961867520034       -0.91129988969946
H           -2.56697858717874        1.82217750128483        0.87063351049688
H           -2.36858248767490       -3.38192771917030        0.74749907080639
H           -2.40318666050916       -3.26974303016676       -1.00868189658867
H           -3.01527246114908       -1.98388215460395       -0.04028145331356
H            1.95030833669962       -2.92808234996985        0.16492228951938
25
 energy: 96.407612667866 xtb: 6.6.1 (8d0f1dd)
C            3.15373744093817        1.54342563292339        0.15069275656361
N            2.50565893886137        0.22914029421286       -0.03805082853427
C            2.94182072429790       -1.04896729950110        0.12288880068193
N            1.86056365564704       -1.92551713555094        0.10344999149256
C            0.61048278033231       -1.30373412481233       -0.04151113620758
C            1.09180729174332        0.07089250533434       -0.12176288668252
C            0.30545350959754        1.21260491835341       -0.19358512480612
O            0.62114439956235        2.42262891847166       -0.24621185313514
N           -1.01140515932950        0.81104302510441       -0.11606751046881
C           -1.95602101600850        1.88899515899527       -0.04694270292501
C           -1.58473860142500       -0.40546166823202       -0.07232036213432
O           -2.81634290146857       -0.34100677529213       -0.03357648439529
N           -0.87628488187080       -1.65756700569266       -0.06407064649120
C           -2.24564089130263       -2.71096563242056       -0.09947120363379
H            4.04007950661644        1.46918601730075        0.81802024477639
H            3.49036154658283        2.02766240362350       -0.82042455063373
H            2.40482592163104        2.25741271713800        0.58167824239408
H            3.97728065337589       -1.35186279741523        0.16450258607895
H           -1.33806153137721        2.78350566093111       -0.07732790634088
H           -2.62675792592042        1.80547152317595       -0.89763209081708
H           -2.51058092731390        1.78562103231419        0.88451645396533
H           -2.53388638541448       -3.40294088485480        0.72138055186990
H           -2.57987592859550       -3.26415201475139       -1.01519989854205
H           -3.08340873824250       -1.98864393825189       -0.03439018700970
H            2.07200318701881       -2.91774192893161        0.19844964108200
25
 energy: 115.728010355205 xtb: 6.6.1 (8d0f1dd)
C            3.15151730226620        1.56552081150667        0.15808304788491
N            2.51779991255449        0.25906909735710       -0.04651341959549
C            2.98497399431483       -1.01945307055074        0.15487622312656
N            1.92638096704804       -1.91041034539422        0.12079774049176
C            0.65552514197626       -1.32035682836154       -0.05729814233211
C            1.11099667620639        0.06664811265127       -0.15148997021773
C            0.32054978257516        1.19853838518604       -0.22461962729854
O            0.64849683683645        2.39120138730429       -0.28900909127224
N           -0.98139093447456        0.79775204546209       -0.13049769538264
C           -1.93560157245069        1.86636232366864       -0.04066012693870
C           -1.54921717008067       -0.42974840734819       -0.07590176233141
O           -2.78331266142711       -0.31338172193779       -0.00793022406079
N           -0.88126001242416       -1.69145726552291       -0.07989075160109
C           -2.38168890153233       -2.74080321356891       -0.11177613287803
H            4.06125119085681        1.50071855666843        0.77175800583576
H            3.41647721177000        2.06461408872812       -0.79522729421905
H            2.43944078499927        2.24930924889707        0.63659119043354
H            4.03795528372717       -1.26728183949404        0.18824600475450
H           -1.33931104895749        2.77478581557363       -0.07765674508145
H           -2.62253693004646        1.77131306554381       -0.87805207989375
H           -2.47191522982980        1.74479290298434        0.89948594361287
H           -2.70021979341105       -3.42249082506808        0.68781147791905
H           -2.75677955485231       -3.24403162325413       -1.02207321341408
H           -3.16170780039781       -2.01478456141416       -0.02407444088006
H            2.20579119268934       -2.88739753744456        0.22205497948545
25