      -----------------------------------------------------------      
     |                   =====================                   |     
     |                           x T B                           |     
     |                   =====================                   |     
     |                         S. Grimme                         |     
     |          Mulliken Center for Theoretical Chemistry        |     
     |                    University of Bonn                     |     
      -----------------------------------------------------------      

   * xtb version 6.6.1 (8d0f1dd) compiled by 'conda@1efc2f54142f' on 2023-08-01

   xtb is free software: you can redistribute it and/or modify it under
   the terms of the GNU Lesser General Public License as published by
   the Free Software Foundation, either version 3 of the License, or
   (at your option) any later version.
   
   xtb is distributed in the hope that it will be useful,
   but WITHOUT ANY WARRANTY; without even the implied warranty of
   MERCHANTABILITY or FITNESS FOR A PARTICULAR PURPOSE.  See the
   GNU Lesser General Public License for more details.
   
   Cite this work as:
   * C. Bannwarth, E. Caldeweyher, S. Ehlert, A. Hansen, P. Pracht,
     J. Seibert, S. Spicher, S. Grimme, WIREs Comput. Mol. Sci., 2020, 11,
     e01493. DOI: 10.1002/wcms.1493
   
   for GFN2-xTB:
   * C. Bannwarth, S. Ehlert and S. Grimme., J. Chem. Theory Comput., 2019,
     15, 1652-1671. DOI: 10.1021/acs.jctc.8b01176
   for GFN1-xTB:
   * S. Grimme, C. Bannwarth, P. Shushkov, J. Chem. Theory Comput., 2017,
     13, 1989-2009. DOI: 10.1021/acs.jctc.7b00118
   for GFN0-xTB:
   * P. Pracht, E. Caldeweyher, S. Ehlert, S. Grimme, ChemRxiv, 2019, preprint.
     DOI: 10.26434/chemrxiv.8326202.v1
   for GFN-FF:
   * S. Spicher and S. Grimme, Angew. Chem. Int. Ed., 2020, 59, 15665-15673.
     DOI: 10.1002/anie.202004239
   
   for ALPB and GBSA implicit solvation:
   * S. Ehlert, M. Stahn, S. Spicher, S. Grimme, J. Chem. Theory Comput.,
     2021, 17, 4250-4261. DOI: 10.1021/acs.jctc.1c00471
   
   for DFT-D4:
   * E. Caldeweyher, C. Bannwarth and S. Grimme, J. Chem. Phys., 2017,
     147, 034112. DOI: 10.1063/1.4993215
   * E. Caldeweyher, S. Ehlert, A. Hansen, H. Neugebauer, S. Spicher,
     C. Bannwarth and S. Grimme, J. Chem. Phys., 2019, 150, 154122.
     DOI: 10.1063/1.5090222
   * E. Caldeweyher, J.-M. Mewes, S. Ehlert and S. Grimme, Phys. Chem. Chem. Phys.
     2020, 22, 8499-8512. DOI: 10.1039/D0CP00502A
   
   for sTDA-xTB:
   * S. Grimme and C. Bannwarth, J. Chem. Phys., 2016, 145, 054103.
     DOI: 10.1063/1.4959605
   
   in the mass-spec context:
   * V. Asgeirsson, C. Bauer and S. Grimme, Chem. Sci., 2017, 8, 4879.
     DOI: 10.1039/c7sc00601b
   * J. Koopman and S. Grimme, ACS Omega 2019, 4, 12, 15120-15133.
     DOI: 10.1021/acsomega.9b02011
   
   for metadynamics refer to:
   * S. Grimme, J. Chem. Theory Comput., 2019, 155, 2847-2862
     DOI: 10.1021/acs.jctc.9b00143
   
   for SPH calculations refer to:
   * S. Spicher and S. Grimme, J. Chem. Theory Comput., 2021, 17, 1701-1714
     DOI: 10.1021/acs.jctc.0c01306
   
   with help from (in alphabetical order)
   P. Atkinson, C. Bannwarth, F. Bohle, G. Brandenburg, E. Caldeweyher
   M. Checinski, S. Dohm, S. Ehlert, S. Ehrlich, I. Gerasimov, C. Hölzer
   A. Katbashev, J. Koopman, C. Lavigne, S. Lehtola, F. März, M. Müller,
   F. Musil, H. Neugebauer, J. Pisarek, C. Plett, P. Pracht, F. Pultar,
   J. Seibert, P. Shushkov, S. Spicher, M. Stahn, M. Steiner, T. Strunk,
   J. Stückrath, T. Rose, and J. Unsleber
   
 * started run on 2024/04/06 at 11:15:19.249     

           -------------------------------------------------
          |                Calculation Setup                |
           -------------------------------------------------

          program call               : xtb struc.xyz --opt loose --input .xc1 --gfn2
          hostname                   : n-62-30-23
          coordinate file            : struc.xyz
          omp threads                :                     1

   ID    Z sym.   atoms
    1    7 N      1, 17
    2    6 C      2-6, 8, 9, 11-16, 18-23, 25, 26, 28-33
    3    8 O      7, 10, 24, 27
    4    1 H      34-72
constraining bond 1 66 to    5.6866700 Å, actual value:    2.3500839 Å

           -------------------------------------------------
          |                 G F N 2 - x T B                 |
           -------------------------------------------------

        Reference                      10.1021/acs.jctc.8b01176
      * Hamiltonian:
        H0-scaling (s, p, d)           1.850000    2.230000    2.230000
        zeta-weighting                 0.500000
      * Dispersion:
        s8                             2.700000
        a1                             0.520000
        a2                             5.000000
        s9                             5.000000
      * Repulsion:
        kExp                           1.500000    1.000000
        rExp                           1.000000
      * Coulomb:
        alpha                          2.000000
        third order                    shell-resolved
        anisotropic                    true
        a3                             3.000000
        a5                             4.000000
        cn-shift                       1.200000
        cn-exp                         4.000000
        max-rad                        5.000000


          ...................................................
          :                      SETUP                      :
          :.................................................:
          :  # basis functions                 171          :
          :  # atomic orbitals                 171          :
          :  # shells                          105          :
          :  # electrons                       180          :
          :  max. iterations                   250          :
          :  Hamiltonian                  GFN2-xTB          :
          :  restarted?                      false          :
          :  GBSA solvation                  false          :
          :  PC potential                    false          :
          :  electronic temp.         5000.0000000     K    :
          :  accuracy                    1.0000000          :
          :  -> integral cutoff          0.2500000E+02      :
          :  -> integral neglect         0.1000000E-07      :
          :  -> SCF convergence          0.1000000E-05 Eh   :
          :  -> wf. convergence          0.1000000E-03 e    :
          :  Broyden damping             0.4000000          :
          ...................................................

 iter      E             dE          RMSdq      gap      omega  full diag
   1   -100.5973919 -0.100597E+03  0.374E+00    3.20       0.0  T
   2   -100.7362642 -0.138872E+00  0.221E+00    1.08       1.0  T
   3   -100.7049001  0.313641E-01  0.141E+00    3.29       1.0  T
   4   -100.7721690 -0.672689E-01  0.526E-01    1.50       1.0  T
   5   -100.7894292 -0.172602E-01  0.190E-01    1.98       1.0  T
   6   -100.7911978 -0.176856E-02  0.792E-02    1.77       1.0  T
   7   -100.7914750 -0.277198E-03  0.375E-02    1.83       1.0  T
   8   -100.7914914 -0.164582E-04  0.140E-02    1.83       1.0  T
   9   -100.7914976 -0.616739E-05  0.474E-03    1.82       2.5  T
  10   -100.7914988 -0.118227E-05  0.172E-03    1.82       6.8  T
  11   -100.7914989 -0.139928E-06  0.766E-04    1.82      15.4  T
  12   -100.7914989 -0.773143E-08  0.318E-04    1.82      37.0  T

   *** convergence criteria satisfied after 12 iterations ***

         #    Occupation            Energy/Eh            Energy/eV
      -------------------------------------------------------------
         1        2.0000           -0.8078051             -21.9815
       ...           ...                  ...                  ...
        84        1.9966           -0.5157491             -14.0342
        85        1.9959           -0.5128261             -13.9547
        86        1.9840           -0.4911498             -13.3649
        87        1.9795           -0.4872543             -13.2589
        88        1.9640           -0.4782114             -13.0128
        89        1.8920           -0.4602041             -12.5228
        90        1.8557           -0.4553147             -12.3897 (HOMO)
        91        0.3166           -0.3884132             -10.5693 (LUMO)
        92        0.0218           -0.3434697              -9.3463
        93        0.0041           -0.3169887              -8.6257
        94        0.0034           -0.3139726              -8.5436
        95        0.0029           -0.3112618              -8.4699
       ...           ...                  ...                  ...
       171                          0.5822580              15.8440
      -------------------------------------------------------------
                  HL-Gap            0.0669015 Eh            1.8205 eV
             Fermi-level           -0.4148687 Eh          -11.2892 eV

 SCC (total)                   0 d,  0 h,  0 min,  0.191 sec
 SCC setup                      ...        0 min,  0.001 sec (  0.781%)
 Dispersion                     ...        0 min,  0.002 sec (  1.208%)
 classical contributions        ...        0 min,  0.001 sec (  0.353%)
 integral evaluation            ...        0 min,  0.018 sec (  9.556%)
 iterations                     ...        0 min,  0.097 sec ( 50.776%)
 molecular gradient             ...        0 min,  0.071 sec ( 36.985%)
 printout                       ...        0 min,  0.001 sec (  0.333%)

         :::::::::::::::::::::::::::::::::::::::::::::::::::::
         ::                     SUMMARY                     ::
         :::::::::::::::::::::::::::::::::::::::::::::::::::::
         :: total energy            -101.391929234248 Eh    ::
         :: gradient norm              0.897181550638 Eh/a0 ::
         :: HOMO-LUMO gap              1.820481192090 eV    ::
         ::.................................................::
         :: SCC energy              -100.791498925389 Eh    ::
         :: -> isotropic ES            0.109302908418 Eh    ::
         :: -> anisotropic ES          0.005415138735 Eh    ::
         :: -> anisotropic XC          0.042392697176 Eh    ::
         :: -> dispersion             -0.075527661009 Eh    ::
         :: repulsion energy           1.386151658689 Eh    ::
         :: add. restraining          -1.987798320054 Eh    ::
         :: total charge               1.000000000108 e     ::
         :::::::::::::::::::::::::::::::::::::::::::::::::::::

      ----------------------------------------------------------- 
     |                   =====================                   |
     |                        A N C O P T                        |
     |                   =====================                   |
     |               Approximate Normal Coordinate               |
     |                Rational Function Optimizer                |
      ----------------------------------------------------------- 

          ...................................................
          :                      SETUP                      :
          :.................................................:
          :   optimization level             loose          :
          :   max. optcycles                   200          :
          :   ANC micro-cycles                  20          :
          :   degrees of freedom               210          :
          :.................................................:
          :   RF solver                   davidson          :
          :   write xtbopt.log                true          :
          :   linear?                        false          :
          :   energy convergence         0.5000000E-04 Eh   :
          :   grad. convergence          0.4000000E-02 Eh/α :
          :   maxmium RF displ.          1.0000000          :
          :   Hlow (freq-cutoff)         0.1000000E-01      :
          :   Hmax (freq-cutoff)         5.0000000          :
          :   S6 in model hess.         20.0000000          :
          ...................................................

generating ANC from model Hessian ...
Using Lindh-Hessian (1995)
 Shifting diagonal of input Hessian by   0.11311725817556569     
 Lowest  eigenvalues of input Hessian
    0.010000    0.000000    0.000000    0.000000    0.000000    0.000000
    0.000000    0.113206    0.113249    0.113305    0.113389    0.113461
    0.113812    0.114113    0.114450    0.114725    0.115275    0.115916
 Highest eigenvalues
    2.139081    2.149082    2.154698    2.286834    2.287616    2.354230


........................................................................
.............................. CYCLE    1 ..............................
........................................................................

 iter      E             dE          RMSdq      gap      omega  full diag
   1   -100.7914989 -0.100791E+03  0.114E-04    1.82       0.0  T
   2   -100.7914989 -0.678995E-10  0.713E-05    1.82     165.2  T
   3   -100.7914989  0.665210E-10  0.496E-05    1.82     237.5  T
     SCC iter.                  ...        0 min,  0.026 sec
     gradient                   ...        0 min,  0.069 sec
 * total energy  :  -101.3919292 Eh     change       -0.4035485E-08 Eh
   gradient norm :     0.8971815 Eh/α   predicted     0.0000000E+00 (-100.00%)
   displ. norm   :     0.9505569 α      lambda       -0.8200921E+00
   maximum displ.:     0.8848687 α      in ANC's #1, #82, #86, ...

........................................................................
.............................. CYCLE    2 ..............................
........................................................................

 iter      E             dE          RMSdq      gap      omega  full diag
   1   -100.6944611 -0.100694E+03  0.542E-01    1.61       0.0  T
   2   -100.6939879  0.473245E-03  0.322E-01    1.85       1.0  T
   3   -100.6898226  0.416532E-02  0.309E-01    1.46       1.0  T
   4   -100.6957975 -0.597492E-02  0.923E-02    1.81       1.0  T
   5   -100.6966206 -0.823128E-03  0.166E-02    1.71       1.0  T
   6   -100.6966220 -0.144222E-05  0.951E-03    1.70       1.2  T
   7   -100.6966260 -0.396054E-05  0.357E-03    1.71       3.3  T
   8   -100.6966267 -0.708093E-06  0.123E-03    1.71       9.6  T
   9   -100.6966268 -0.793026E-07  0.471E-04    1.71      25.0  T
  10   -100.6966268 -0.106018E-07  0.177E-04    1.71      66.4  T
     SCC iter.                  ...        0 min,  0.080 sec
     gradient                   ...        0 min,  0.069 sec
 * total energy  :  -102.2459360 Eh     change       -0.8540068E+00 Eh
   gradient norm :     0.9500898 Eh/α   predicted    -0.7805477E+00 (  -8.60%)
   displ. norm   :     0.9651156 α      lambda       -0.8934505E+00
   maximum displ.:     0.9158089 α      in ANC's #1, #82, #86, ...

........................................................................
.............................. CYCLE    3 ..............................
........................................................................

 iter      E             dE          RMSdq      gap      omega  full diag
   1   -100.4843696 -0.100484E+03  0.124E+00    0.45       0.0  T
   2   -100.3219192  0.162450E+00  0.153E+00    1.68       1.0  T
   3   -100.5782830 -0.256364E+00  0.374E-01    0.82       1.0  T
   4   -100.5735936  0.468938E-02  0.242E-01    0.75       1.0  T
   5   -100.5775716 -0.397797E-02  0.159E-01    0.90       1.0  T
   6   -100.5797279 -0.215629E-02  0.480E-02    0.89       1.0  T
   7   -100.5797772 -0.493088E-04  0.238E-02    0.92       1.0  T
   8   -100.5798184 -0.412150E-04  0.798E-03    0.91       1.5  T
   9   -100.5798217 -0.328348E-05  0.554E-03    0.90       2.1  T
  10   -100.5798249 -0.323394E-05  0.177E-03    0.91       6.6  T
  11   -100.5798250 -0.775588E-07  0.713E-04    0.91      16.5  T
  12   -100.5798250 -0.280950E-07  0.322E-04    0.91      36.6  T
     SCC iter.                  ...        0 min,  0.095 sec
     gradient                   ...        0 min,  0.069 sec
 * total energy  :  -103.1974889 Eh     change       -0.9515529E+00 Eh
   gradient norm :     1.0392502 Eh/α   predicted    -0.8628455E+00 (  -9.32%)
   displ. norm   :     0.9621219 α      lambda       -0.9721182E+00
   maximum displ.:     0.9077949 α      in ANC's #1, #82, #86, ...

........................................................................
.............................. CYCLE    4 ..............................
........................................................................

 iter      E             dE          RMSdq      gap      omega  full diag
   1   -100.4100845 -0.100410E+03  0.141E+00    0.28       0.0  T
   2   -100.1291593  0.280925E+00  0.198E+00    2.06       1.0  T
   3   -100.5125527 -0.383393E+00  0.446E-01    0.49       1.0  T
   4   -100.5017718  0.107809E-01  0.550E-01    0.60       1.0  T
   5   -100.5320340 -0.302622E-01  0.243E-01    0.56       1.0  T
   6   -100.5339417 -0.190767E-02  0.102E-01    0.54       1.0  T
   7   -100.5344561 -0.514435E-03  0.351E-02    0.59       1.0  T
   8   -100.5345722 -0.116094E-03  0.231E-02    0.61       1.0  T
   9   -100.5346030 -0.307665E-04  0.934E-03    0.60       1.3  T
  10   -100.5346088 -0.585780E-05  0.198E-03    0.59       6.0  T
  11   -100.5346091 -0.287083E-06  0.936E-04    0.59      12.6  T
  12   -100.5346092 -0.505035E-07  0.214E-04    0.60      55.1  T
     SCC iter.                  ...        0 min,  0.095 sec
     gradient                   ...        0 min,  0.069 sec
 * total energy  :  -100.1471096 Eh     change        0.3050379E+01 Eh
   gradient norm :    22.3021564 Eh/α   predicted    -0.9359935E+00 (-130.68%)
   displ. norm   :     0.5679162 α      lambda       -0.1266409E+02
   maximum displ.:     0.4330486 α      in ANC's #1, #193, #180, ...

........................................................................
.............................. CYCLE    5 ..............................
........................................................................

 iter      E             dE          RMSdq      gap      omega  full diag
   1   -100.5415020 -0.100542E+03  0.750E-01    1.02       0.0  T
   2   -100.2665918  0.274910E+00  0.177E+00    0.36       1.0  T
   3   -100.5772176 -0.310626E+00  0.275E-01    0.77       1.0  T
   4   -100.5747895  0.242810E-02  0.295E-01    0.49       1.0  T
   5   -100.5832883 -0.849878E-02  0.111E-01    0.63       1.0  T
   6   -100.5840802 -0.791937E-03  0.370E-02    0.63       1.0  T
   7   -100.5840479  0.323020E-04  0.288E-02    0.63       1.0  T
   8   -100.5841500 -0.102110E-03  0.648E-03    0.62       1.8  T
   9   -100.5841522 -0.217623E-05  0.252E-03    0.62       4.7  T
  10   -100.5841523 -0.132357E-06  0.131E-03    0.62       9.0  T
  11   -100.5841525 -0.131256E-06  0.318E-04    0.62      37.0  T
  12   -100.5841525 -0.640318E-08  0.121E-04    0.62      97.5  T
     SCC iter.                  ...        0 min,  0.095 sec
     gradient                   ...        0 min,  0.069 sec
 * total energy  :  -103.4800607 Eh     change       -0.3332951E+01 Eh
   gradient norm :     0.2857462 Eh/α   predicted    -0.8374318E+01 ( 151.26%)
   displ. norm   :     0.4436730 α      lambda       -0.5421785E-01
   maximum displ.:     0.2208096 α      in ANC's #1, #135, #82, ...

........................................................................
.............................. CYCLE    6 ..............................
........................................................................

 iter      E             dE          RMSdq      gap      omega  full diag
   1   -100.6436902 -0.100644E+03  0.264E-01    0.62       0.0  T
   2   -100.6197715  0.239187E-01  0.635E-01    0.23       1.0  T
   3   -100.6485218 -0.287502E-01  0.173E-01    0.58       1.0  T
   4   -100.6431875  0.533423E-02  0.236E-01    0.45       1.0  T
   5   -100.6483775 -0.518993E-02  0.962E-02    0.63       1.0  T
   6   -100.6492645 -0.887037E-03  0.190E-02    0.61       1.0  T
   7   -100.6492773 -0.127941E-04  0.984E-03    0.61       1.2  T
   8   -100.6492835 -0.625816E-05  0.241E-03    0.61       4.9  T
   9   -100.6492843 -0.717883E-06  0.878E-04    0.61      13.4  T
  10   -100.6492843 -0.488114E-07  0.329E-04    0.61      35.8  T
     SCC iter.                  ...        0 min,  0.080 sec
     gradient                   ...        0 min,  0.069 sec
 * total energy  :  -103.5271513 Eh     change       -0.4709058E-01 Eh
   gradient norm :     0.2599975 Eh/α   predicted    -0.3244420E-01 ( -31.10%)
   displ. norm   :     0.5867894 α      lambda       -0.7372394E-01
   maximum displ.:     0.1821591 α      in ANC's #1, #149, #150, ...

........................................................................
.............................. CYCLE    7 ..............................
........................................................................

 iter      E             dE          RMSdq      gap      omega  full diag
   1   -100.7279454 -0.100728E+03  0.360E-01    0.45       0.0  T
   2   -100.6986417  0.293038E-01  0.613E-01    0.54       1.0  T
   3   -100.7317335 -0.330918E-01  0.213E-01    0.50       1.0  T
   4   -100.7162836  0.154499E-01  0.410E-01    0.84       1.0  T
   5   -100.7326030 -0.163194E-01  0.366E-02    0.55       1.0  T
   6   -100.7327121 -0.109052E-03  0.111E-02    0.57       1.1  T
   7   -100.7327137 -0.158123E-05  0.727E-03    0.57       1.6  T
   8   -100.7327165 -0.283739E-05  0.219E-03    0.57       5.4  T
   9   -100.7327169 -0.400202E-06  0.838E-04    0.57      14.1  T
  10   -100.7327170 -0.635399E-07  0.434E-04    0.57      27.2  T
     SCC iter.                  ...        0 min,  0.080 sec
     gradient                   ...        0 min,  0.069 sec
 * total energy  :  -103.5678075 Eh     change       -0.4065623E-01 Eh
   gradient norm :     0.2630268 Eh/α   predicted    -0.4955460E-01 (  21.89%)
   displ. norm   :     0.2501581 α      lambda       -0.1504894E-01
   maximum displ.:     0.0817685 α      in ANC's #113, #175, #70, ...

........................................................................
.............................. CYCLE    8 ..............................
........................................................................

 iter      E             dE          RMSdq      gap      omega  full diag
   1   -100.7223102 -0.100722E+03  0.323E-01    0.25       0.0  T
   2   -100.6534967  0.688135E-01  0.903E-01    1.13       1.0  T
   3   -100.7278848 -0.743882E-01  0.168E-01    0.42       1.0  T
   4   -100.7299050 -0.202017E-02  0.903E-02    0.51       1.0  T
   5   -100.7304736 -0.568660E-03  0.229E-02    0.50       1.0  T
   6   -100.7304801 -0.648492E-05  0.737E-03    0.49       1.6  T
   7   -100.7304870 -0.686381E-05  0.312E-03    0.50       3.8  T
   8   -100.7304874 -0.408555E-06  0.254E-03    0.50       4.6  T
   9   -100.7304878 -0.396878E-06  0.715E-04    0.50      16.5  T
  10   -100.7304878 -0.271722E-07  0.216E-04    0.50      54.6  T
     SCC iter.                  ...        0 min,  0.080 sec
     gradient                   ...        0 min,  0.069 sec
 * total energy  :  -103.5786207 Eh     change       -0.1081319E-01 Eh
   gradient norm :     0.1890211 Eh/α   predicted    -0.7995468E-02 ( -26.06%)
   displ. norm   :     0.3278707 α      lambda       -0.1293521E-01
   maximum displ.:     0.0878367 α      in ANC's #42, #113, #59, ...

........................................................................
.............................. CYCLE    9 ..............................
........................................................................

 iter      E             dE          RMSdq      gap      omega  full diag
   1   -100.7120593 -0.100712E+03  0.389E-01    0.13       0.0  T
   2   -100.6233237  0.887356E-01  0.105E+00    1.10       1.0  T
   3   -100.7184297 -0.951060E-01  0.227E-01    0.34       1.0  T
   4   -100.7225051 -0.407539E-02  0.102E-01    0.43       1.0  T
   5   -100.7232260 -0.720846E-03  0.340E-02    0.41       1.0  T
   6   -100.7232403 -0.142845E-04  0.117E-02    0.41       1.0  T
   7   -100.7232552 -0.149003E-04  0.449E-03    0.42       2.6  T
   8   -100.7232565 -0.136196E-05  0.260E-03    0.42       4.5  T
   9   -100.7232569 -0.397722E-06  0.731E-04    0.42      16.1  T
  10   -100.7232569 -0.221527E-07  0.294E-04    0.42      40.0  T
     SCC iter.                  ...        0 min,  0.080 sec
     gradient                   ...        0 min,  0.069 sec
 * total energy  :  -103.5864791 Eh     change       -0.7858386E-02 Eh
   gradient norm :     0.0549996 Eh/α   predicted    -0.7162857E-02 (  -8.85%)
   displ. norm   :     0.1869416 α      lambda       -0.3824636E-02
   maximum displ.:     0.0511114 α      in ANC's #175, #42, #183, ...

........................................................................
.............................. CYCLE   10 ..............................
........................................................................

 iter      E             dE          RMSdq      gap      omega  full diag
   1   -100.7210823 -0.100721E+03  0.133E-01    0.29       0.0  T
   2   -100.7077478  0.133345E-01  0.406E-01    0.68       1.0  T
   3   -100.7219139 -0.141661E-01  0.728E-02    0.38       1.0  T
   4   -100.7221688 -0.254895E-03  0.474E-02    0.39       1.0  T
   5   -100.7223449 -0.176090E-03  0.178E-02    0.39       1.0  T
   6   -100.7223595 -0.146804E-04  0.539E-03    0.39       2.2  T
   7   -100.7223631 -0.357055E-05  0.207E-03    0.39       5.7  T
   8   -100.7223632 -0.133025E-06  0.114E-03    0.39      10.3  T
   9   -100.7223633 -0.750646E-07  0.313E-04    0.39      37.7  T
  10   -100.7223633 -0.577853E-08  0.649E-05    0.39     181.7  T
     SCC iter.                  ...        0 min,  0.080 sec
     gradient                   ...        0 min,  0.070 sec
 * total energy  :  -103.5894968 Eh     change       -0.3017675E-02 Eh
   gradient norm :     0.0306160 Eh/α   predicted    -0.1979156E-02 ( -34.41%)
   displ. norm   :     0.3117255 α      lambda       -0.5448355E-02
   maximum displ.:     0.0799735 α      in ANC's #175, #27, #183, ...

........................................................................
.............................. CYCLE   11 ..............................
........................................................................

 iter      E             dE          RMSdq      gap      omega  full diag
   1   -100.7248252 -0.100725E+03  0.136E-01    0.28       0.0  T
   2   -100.7134340  0.113912E-01  0.375E-01    0.65       1.0  T
   3   -100.7254143 -0.119803E-01  0.781E-02    0.35       1.0  T
   4   -100.7251650  0.249298E-03  0.832E-02    0.36       1.0  T
   5   -100.7258086 -0.643629E-03  0.204E-02    0.37       1.0  T
   6   -100.7258388 -0.301919E-04  0.643E-03    0.37       1.8  T
   7   -100.7258431 -0.430448E-05  0.261E-03    0.37       4.5  T
   8   -100.7258433 -0.255710E-06  0.110E-03    0.37      10.8  T
   9   -100.7258434 -0.694703E-07  0.266E-04    0.37      44.2  T
  10   -100.7258434 -0.389102E-08  0.851E-05    0.37     138.5  T
     SCC iter.                  ...        0 min,  0.081 sec
     gradient                   ...        0 min,  0.069 sec
 * total energy  :  -103.5934591 Eh     change       -0.3962308E-02 Eh
   gradient norm :     0.0268571 Eh/α   predicted    -0.2988933E-02 ( -24.57%)
   displ. norm   :     0.2972059 α      lambda       -0.3357594E-02
   maximum displ.:     0.0694834 α      in ANC's #70, #175, #66, ...

........................................................................
.............................. CYCLE   12 ..............................
........................................................................

 iter      E             dE          RMSdq      gap      omega  full diag
   1   -100.7292807 -0.100729E+03  0.101E-01    0.33       0.0  T
   2   -100.7243404  0.494031E-02  0.235E-01    0.52       1.0  T
   3   -100.7293111 -0.497072E-02  0.704E-02    0.34       1.0  T
   4   -100.7291873  0.123869E-03  0.683E-02    0.35       1.0  T
   5   -100.7295975 -0.410249E-03  0.152E-02    0.37       1.0  T
   6   -100.7296229 -0.253678E-04  0.333E-03    0.37       3.5  T
   7   -100.7296238 -0.914254E-06  0.143E-03    0.37       8.2  T
   8   -100.7296239 -0.836330E-07  0.399E-04    0.37      29.5  T
   9   -100.7296239 -0.457703E-08  0.152E-04    0.37      77.3  T
     SCC iter.                  ...        0 min,  0.073 sec
     gradient                   ...        0 min,  0.069 sec
 * total energy  :  -103.5958042 Eh     change       -0.2345078E-02 Eh
   gradient norm :     0.0438666 Eh/α   predicted    -0.1827084E-02 ( -22.09%)
   displ. norm   :     0.2327272 α      lambda       -0.1840882E-02
   maximum displ.:     0.0645706 α      in ANC's #70, #50, #80, ...

........................................................................
.............................. CYCLE   13 ..............................
........................................................................

 iter      E             dE          RMSdq      gap      omega  full diag
   1   -100.7327590 -0.100733E+03  0.768E-02    0.35       0.0  T
   2   -100.7306072  0.215185E-02  0.153E-01    0.46       1.0  T
   3   -100.7326321 -0.202492E-02  0.634E-02    0.35       1.0  T
   4   -100.7328554 -0.223298E-03  0.225E-02    0.36       1.0  T
   5   -100.7328922 -0.367843E-04  0.872E-03    0.38       1.4  T
   6   -100.7328999 -0.773470E-05  0.284E-03    0.37       4.2  T
   7   -100.7329005 -0.637030E-06  0.112E-03    0.37      10.6  T
   8   -100.7329006 -0.609859E-07  0.267E-04    0.37      44.2  T
   9   -100.7329006 -0.227402E-08  0.108E-04    0.37     109.3  T
     SCC iter.                  ...        0 min,  0.073 sec
     gradient                   ...        0 min,  0.069 sec
 * total energy  :  -103.5970500 Eh     change       -0.1245804E-02 Eh
   gradient norm :     0.0259945 Eh/α   predicted    -0.9703657E-03 ( -22.11%)
   displ. norm   :     0.1621009 α      lambda       -0.9145939E-03
   maximum displ.:     0.0484850 α      in ANC's #50, #70, #27, ...

........................................................................
.............................. CYCLE   14 ..............................
........................................................................

 iter      E             dE          RMSdq      gap      omega  full diag
   1   -100.7362431 -0.100736E+03  0.462E-02    0.39       0.0  T
   2   -100.7359350  0.308136E-03  0.640E-02    0.37       1.0  T
   3   -100.7362164 -0.281408E-03  0.331E-02    0.38       1.0  T
   4   -100.7359719  0.244458E-03  0.582E-02    0.42       1.0  T
   5   -100.7362828 -0.310935E-03  0.599E-03    0.38       2.0  T
   6   -100.7362866 -0.370997E-05  0.180E-03    0.38       6.5  T
   7   -100.7362868 -0.229360E-06  0.827E-04    0.38      14.3  T
   8   -100.7362868 -0.270255E-07  0.252E-04    0.38      46.8  T
     SCC iter.                  ...        0 min,  0.065 sec
     gradient                   ...        0 min,  0.069 sec
 * total energy  :  -103.5976658 Eh     change       -0.6158414E-03 Eh
   gradient norm :     0.0378214 Eh/α   predicted    -0.4693255E-03 ( -23.79%)
   displ. norm   :     0.1308615 α      lambda       -0.6903638E-03
   maximum displ.:     0.0382747 α      in ANC's #50, #42, #27, ...

........................................................................
.............................. CYCLE   15 ..............................
........................................................................

 iter      E             dE          RMSdq      gap      omega  full diag
   1   -100.7394810 -0.100739E+03  0.397E-02    0.40       0.0  T
   2   -100.7394545  0.264516E-04  0.304E-02    0.39       1.0  T
   3   -100.7393107  0.143777E-03  0.450E-02    0.41       1.0  T
   4   -100.7394751 -0.164342E-03  0.104E-02    0.40       1.1  T
   5   -100.7394812 -0.616988E-05  0.741E-03    0.39       1.6  T
   6   -100.7394863 -0.506361E-05  0.119E-03    0.39       9.9  T
   7   -100.7394864 -0.861934E-07  0.690E-04    0.39      17.1  T
   8   -100.7394864 -0.181092E-07  0.216E-04    0.39      54.5  T
     SCC iter.                  ...        0 min,  0.065 sec
     gradient                   ...        0 min,  0.069 sec
 * total energy  :  -103.5980996 Eh     change       -0.4337709E-03 Eh
   gradient norm :     0.0148866 Eh/α   predicted    -0.3511172E-03 ( -19.05%)
   displ. norm   :     0.1015221 α      lambda       -0.4477899E-03
   maximum displ.:     0.0319014 α      in ANC's #42, #27, #63, ...

........................................................................
.............................. CYCLE   16 ..............................
........................................................................

 iter      E             dE          RMSdq      gap      omega  full diag
   1   -100.7406165 -0.100741E+03  0.359E-02    0.41       0.0  T
   2   -100.7404728  0.143755E-03  0.473E-02    0.37       1.0  T
   3   -100.7405617 -0.889412E-04  0.328E-02    0.42       1.0  T
   4   -100.7404587  0.102977E-03  0.401E-02    0.40       1.0  T
   5   -100.7406319 -0.173167E-03  0.273E-03    0.40       4.3  T
   6   -100.7406326 -0.675571E-06  0.853E-04    0.40      13.8  T
   7   -100.7406326 -0.379751E-07  0.549E-04    0.40      21.5  T
     SCC iter.                  ...        0 min,  0.057 sec
     gradient                   ...        0 min,  0.069 sec
 * total energy  :  -103.5984011 Eh     change       -0.3014699E-03 Eh
   gradient norm :     0.0249219 Eh/α   predicted    -0.2262283E-03 ( -24.96%)
   displ. norm   :     0.0853784 α      lambda       -0.3088419E-03
   maximum displ.:     0.0292624 α      in ANC's #42, #27, #40, ...

........................................................................
.............................. CYCLE   17 ..............................
........................................................................

 iter      E             dE          RMSdq      gap      omega  full diag
   1   -100.7400828 -0.100740E+03  0.295E-02    0.40       0.0  T
   2   -100.7400494  0.333625E-04  0.279E-02    0.41       1.0  T
   3   -100.7400365  0.129337E-04  0.255E-02    0.40       1.0  T
   4   -100.7400595 -0.229958E-04  0.177E-02    0.39       1.0  T
   5   -100.7400842 -0.247723E-04  0.752E-03    0.41       1.6  T
   6   -100.7400895 -0.524658E-05  0.957E-04    0.40      12.3  T
   7   -100.7400895 -0.507946E-07  0.516E-04    0.40      22.8  T
   8   -100.7400895 -0.115398E-07  0.203E-04    0.40      58.1  T
     SCC iter.                  ...        0 min,  0.065 sec
     gradient                   ...        0 min,  0.069 sec
 * total energy  :  -103.5986171 Eh     change       -0.2160727E-03 Eh
   gradient norm :     0.0160130 Eh/α   predicted    -0.1555935E-03 ( -27.99%)
   displ. norm   :     0.0799617 α      lambda       -0.2240265E-03
   maximum displ.:     0.0255456 α      in ANC's #27, #42, #33, ...

........................................................................
.............................. CYCLE   18 ..............................
........................................................................

 iter      E             dE          RMSdq      gap      omega  full diag
   1   -100.7391309 -0.100739E+03  0.254E-02    0.40       0.0  T
   2   -100.7390521  0.788261E-04  0.372E-02    0.43       1.0  T
   3   -100.7391317 -0.795871E-04  0.158E-02    0.40       1.0  T
   4   -100.7390322  0.994585E-04  0.315E-02    0.41       1.0  T
   5   -100.7391415 -0.109259E-03  0.226E-03    0.41       5.2  T
   6   -100.7391418 -0.284869E-06  0.743E-04    0.40      15.9  T
   7   -100.7391418 -0.231005E-07  0.327E-04    0.40      36.0  T
     SCC iter.                  ...        0 min,  0.057 sec
     gradient                   ...        0 min,  0.069 sec
 * total energy  :  -103.5987821 Eh     change       -0.1649075E-03 Eh
   gradient norm :     0.0123752 Eh/α   predicted    -0.1127756E-03 ( -31.61%)
   displ. norm   :     0.1036999 α      lambda       -0.2315312E-03
   maximum displ.:     0.0342341 α      in ANC's #27, #29, #33, ...

........................................................................
.............................. CYCLE   19 ..............................
........................................................................

 iter      E             dE          RMSdq      gap      omega  full diag
   1   -100.7385099 -0.100739E+03  0.293E-02    0.40       0.0  T
   2   -100.7384180  0.918798E-04  0.396E-02    0.43       1.0  T
   3   -100.7384889 -0.708581E-04  0.230E-02    0.40       1.0  T
   4   -100.7383904  0.984952E-04  0.342E-02    0.42       1.0  T
   5   -100.7385197 -0.129385E-03  0.187E-03    0.41       6.3  T
   6   -100.7385200 -0.237244E-06  0.706E-04    0.41      16.7  T
   7   -100.7385200 -0.685807E-08  0.508E-04    0.41      23.2  T
     SCC iter.                  ...        0 min,  0.057 sec
     gradient                   ...        0 min,  0.069 sec
 * total energy  :  -103.5989528 Eh     change       -0.1707287E-03 Eh
   gradient norm :     0.0072684 Eh/α   predicted    -0.1170161E-03 ( -31.46%)
   displ. norm   :     0.1290890 α      lambda       -0.2367125E-03
   maximum displ.:     0.0422821 α      in ANC's #29, #27, #33, ...

........................................................................
.............................. CYCLE   20 ..............................
........................................................................

 iter      E             dE          RMSdq      gap      omega  full diag
   1   -100.7385289 -0.100739E+03  0.343E-02    0.42       0.0  T
   2   -100.7385086  0.203535E-04  0.247E-02    0.43       1.0  T
   3   -100.7381397  0.368896E-03  0.637E-02    0.39       1.0  T
   4   -100.7385304 -0.390708E-03  0.339E-03    0.42       3.5  T
   5   -100.7385315 -0.110145E-05  0.120E-03    0.42       9.9  T
   6   -100.7385316 -0.127968E-06  0.462E-04    0.42      25.5  T
   7   -100.7385316  0.270883E-07  0.600E-04    0.42      19.6  T
     SCC iter.                  ...        0 min,  0.057 sec
     gradient                   ...        0 min,  0.070 sec
 * total energy  :  -103.5991275 Eh     change       -0.1747265E-03 Eh
   gradient norm :     0.0056064 Eh/α   predicted    -0.1203324E-03 ( -31.13%)
   displ. norm   :     0.1438764 α      lambda       -0.2307005E-03
   maximum displ.:     0.0477978 α      in ANC's #29, #33, #30, ...
 * RMSD in coord.:     0.3806510 α      energy gain  -0.2207198E+01 Eh

generating ANC from model Hessian ...
Using Lindh-Hessian (1995)
 Shifting diagonal of input Hessian by    9.9454420609286307E-003
 Lowest  eigenvalues of input Hessian
    0.000000    0.000000    0.000000    0.000000    0.000000    0.000000
    0.010000    0.010036    0.010108    0.010195    0.010270    0.010574
    0.010702    0.010880    0.011015    0.011656    0.011825    0.012539
 Highest eigenvalues
    2.041303    2.048529    2.181186    2.181773    2.650561    3.941815


........................................................................
.............................. CYCLE   21 ..............................
........................................................................

 iter      E             dE          RMSdq      gap      omega  full diag
   1   -100.7391809 -0.100739E+03  0.400E-02    0.44       0.0  T
   2   -100.7391377  0.432455E-04  0.336E-02    0.43       1.0  T
   3   -100.7390614  0.762701E-04  0.427E-02    0.46       1.0  T
   4   -100.7391658 -0.104334E-03  0.148E-02    0.43       1.0  T
   5   -100.7391845 -0.187680E-04  0.676E-03    0.44       1.7  T
   6   -100.7391891 -0.461833E-05  0.918E-04    0.44      12.8  T
   7   -100.7391892 -0.671390E-07  0.350E-04    0.44      33.7  T
   8   -100.7391892  0.294619E-09  0.181E-04    0.44      65.1  T
     SCC iter.                  ...        0 min,  0.065 sec
     gradient                   ...        0 min,  0.069 sec
 * total energy  :  -103.5992961 Eh     change       -0.1686257E-03 Eh
   gradient norm :     0.0069391 Eh/α   predicted     0.0000000E+00 (-100.00%)
   displ. norm   :     0.0867940 α      lambda       -0.2435079E-03
   maximum displ.:     0.0424035 α      in ANC's #31, #25, #13, ...

........................................................................
.............................. CYCLE   22 ..............................
........................................................................

 iter      E             dE          RMSdq      gap      omega  full diag
   1   -100.7399936 -0.100740E+03  0.348E-02    0.46       0.0  T
   2   -100.7396913  0.302324E-03  0.648E-02    0.41       1.0  T
   3   -100.7399905 -0.299192E-03  0.229E-02    0.45       1.0  T
   4   -100.7398617  0.128712E-03  0.385E-02    0.44       1.0  T
   5   -100.7400181 -0.156397E-03  0.140E-03    0.45       8.4  T
   6   -100.7400182 -0.802401E-07  0.722E-04    0.45      16.3  T
   7   -100.7400182 -0.187279E-07  0.358E-04    0.45      32.9  T
     SCC iter.                  ...        0 min,  0.057 sec
     gradient                   ...        0 min,  0.069 sec
 * total energy  :  -103.5994811 Eh     change       -0.1849197E-03 Eh
   gradient norm :     0.0074003 Eh/α   predicted    -0.1226718E-03 ( -33.66%)
   displ. norm   :     0.2074823 α      lambda       -0.3673458E-03
   maximum displ.:     0.1126998 α      in ANC's #31, #25, #13, ...

........................................................................
.............................. CYCLE   23 ..............................
........................................................................

 iter      E             dE          RMSdq      gap      omega  full diag
   1   -100.7406831 -0.100741E+03  0.754E-02    0.48       0.0  T
   2   -100.7402854  0.397698E-03  0.836E-02    0.43       1.0  T
   3   -100.7402066  0.788393E-04  0.794E-02    0.51       1.0  T
   4   -100.7405438 -0.337195E-03  0.407E-02    0.46       1.0  T
   5   -100.7407126 -0.168817E-03  0.310E-03    0.47       3.8  T
   6   -100.7407131 -0.506462E-06  0.149E-03    0.47       7.9  T
   7   -100.7407132 -0.713470E-07  0.761E-04    0.47      15.5  T
   8   -100.7407132 -0.326349E-07  0.148E-04    0.47      79.8  T
     SCC iter.                  ...        0 min,  0.065 sec
     gradient                   ...        0 min,  0.069 sec
 * total energy  :  -103.5995993 Eh     change       -0.1182662E-03 Eh
   gradient norm :     0.0329625 Eh/α   predicted    -0.1916186E-03 (  62.02%)
   displ. norm   :     0.1573738 α      lambda       -0.3466948E-03
   maximum displ.:     0.0863591 α      in ANC's #31, #40, #13, ...

........................................................................
.............................. CYCLE   24 ..............................
........................................................................

 iter      E             dE          RMSdq      gap      omega  full diag
   1   -100.7398552 -0.100740E+03  0.569E-02    0.48       0.0  T
   2   -100.7398106  0.445247E-04  0.410E-02    0.48       1.0  T
   3   -100.7389202  0.890444E-03  0.936E-02    0.51       1.0  T
   4   -100.7398030 -0.882858E-03  0.271E-02    0.47       1.0  T
   5   -100.7398599 -0.569007E-04  0.235E-03    0.48       5.0  T
   6   -100.7398604 -0.419219E-06  0.732E-04    0.48      16.1  T
   7   -100.7398604 -0.937975E-08  0.415E-04    0.48      28.4  T
     SCC iter.                  ...        0 min,  0.057 sec
     gradient                   ...        0 min,  0.069 sec
 * total energy  :  -103.5997704 Eh     change       -0.1711006E-03 Eh
   gradient norm :     0.0166321 Eh/α   predicted    -0.1776420E-03 (   3.82%)
   displ. norm   :     0.0977732 α      lambda       -0.2099820E-03
   maximum displ.:     0.0543004 α      in ANC's #40, #31, #13, ...

........................................................................
.............................. CYCLE   25 ..............................
........................................................................

 iter      E             dE          RMSdq      gap      omega  full diag
   1   -100.7402824 -0.100740E+03  0.398E-02    0.48       0.0  T
   2   -100.7400401  0.242336E-03  0.612E-02    0.52       1.0  T
   3   -100.7402498 -0.209722E-03  0.319E-02    0.48       1.0  T
   4   -100.7400749  0.174889E-03  0.464E-02    0.50       1.0  T
   5   -100.7403087 -0.233820E-03  0.182E-03    0.49       6.5  T
   6   -100.7403089 -0.172272E-06  0.757E-04    0.49      15.6  T
   7   -100.7403089 -0.197274E-07  0.423E-04    0.49      27.8  T
     SCC iter.                  ...        0 min,  0.057 sec
     gradient                   ...        0 min,  0.075 sec
 * total energy  :  -103.5999501 Eh     change       -0.1797011E-03 Eh
   gradient norm :     0.0172976 Eh/α   predicted    -0.1060065E-03 ( -41.01%)
   displ. norm   :     0.4816330 α      lambda       -0.6624836E-03
   maximum displ.:     0.2527115 α      in ANC's #40, #31, #13, ...

........................................................................
.............................. CYCLE   26 ..............................
........................................................................

 iter      E             dE          RMSdq      gap      omega  full diag
   1   -100.7370121 -0.100737E+03  0.195E-01    0.53       0.0  T
   2   -100.7330799  0.393225E-02  0.260E-01    0.58       1.0  T
   3   -100.7363431 -0.326326E-02  0.155E-01    0.50       1.0  T
   4   -100.7327284  0.361469E-02  0.211E-01    0.62       1.0  T
   5   -100.7375739 -0.484551E-02  0.962E-03    0.54       1.2  T
   6   -100.7375795 -0.553261E-05  0.241E-03    0.54       4.9  T
   7   -100.7375797 -0.196077E-06  0.141E-03    0.54       8.4  T
   8   -100.7375797 -0.790186E-07  0.589E-04    0.54      20.0  T
   9   -100.7375798 -0.263176E-07  0.175E-04    0.54      67.4  T
     SCC iter.                  ...        0 min,  0.073 sec
     gradient                   ...        0 min,  0.069 sec
 * total energy  :  -103.6003195 Eh     change       -0.3693848E-03 Eh
   gradient norm :     0.0178601 Eh/α   predicted    -0.4080817E-03 (  10.48%)
   displ. norm   :     0.1032322 α      lambda       -0.3757393E-03
   maximum displ.:     0.0521695 α      in ANC's #40, #6, #31, ...

........................................................................
.............................. CYCLE   27 ..............................
........................................................................

 iter      E             dE          RMSdq      gap      omega  full diag
   1   -100.7405419 -0.100741E+03  0.349E-02    0.56       0.0  T
   2   -100.7404124  0.129486E-03  0.391E-02    0.53       1.0  T
   3   -100.7403674  0.449654E-04  0.479E-02    0.57       1.0  T
   4   -100.7405392 -0.171757E-03  0.118E-02    0.55       1.0  T
   5   -100.7405509 -0.116681E-04  0.458E-03    0.55       2.6  T
   6   -100.7405520 -0.114133E-05  0.176E-03    0.55       6.7  T
   7   -100.7405521 -0.127269E-06  0.112E-03    0.55      10.5  T
   8   -100.7405522 -0.945695E-07  0.194E-04    0.55      60.7  T
   9   -100.7405522 -0.224647E-08  0.610E-05    0.55     193.1  T
     SCC iter.                  ...        0 min,  0.072 sec
     gradient                   ...        0 min,  0.070 sec
 * total energy  :  -103.6005673 Eh     change       -0.2477783E-03 Eh
   gradient norm :     0.0109904 Eh/α   predicted    -0.1898816E-03 ( -23.37%)
   displ. norm   :     0.3603612 α      lambda       -0.4812762E-03
   maximum displ.:     0.1723121 α      in ANC's #31, #40, #6, ...

........................................................................
.............................. CYCLE   28 ..............................
........................................................................

 iter      E             dE          RMSdq      gap      omega  full diag
   1   -100.7407692 -0.100741E+03  0.129E-01    0.60       0.0  T
   2   -100.7404184  0.350833E-03  0.100E-01    0.57       1.0  T
   3   -100.7392772  0.114126E-02  0.140E-01    0.63       1.0  T
   4   -100.7406528 -0.137569E-02  0.439E-02    0.57       1.0  T
   5   -100.7408232 -0.170333E-03  0.912E-03    0.60       1.3  T
   6   -100.7408314 -0.818969E-05  0.125E-03    0.59       9.4  T
   7   -100.7408314 -0.145729E-07  0.730E-04    0.59      16.1  T
   8   -100.7408314 -0.267979E-07  0.193E-04    0.59      61.1  T
     SCC iter.                  ...        0 min,  0.065 sec
     gradient                   ...        0 min,  0.069 sec
 * total energy  :  -103.6009641 Eh     change       -0.3968071E-03 Eh
   gradient norm :     0.0125416 Eh/α   predicted    -0.2719102E-03 ( -31.48%)
   displ. norm   :     0.4957261 α      lambda       -0.9449332E-03
   maximum displ.:     0.2214191 α      in ANC's #31, #40, #6, ...

........................................................................
.............................. CYCLE   29 ..............................
........................................................................

 iter      E             dE          RMSdq      gap      omega  full diag
   1   -100.7440041 -0.100744E+03  0.175E-01    0.66       0.0  T
   2   -100.7436462  0.357890E-03  0.128E-01    0.64       1.0  T
   3   -100.7384756  0.517064E-02  0.256E-01    0.77       1.0  T
   4   -100.7436411 -0.516556E-02  0.621E-02    0.62       1.0  T
   5   -100.7440411 -0.400014E-03  0.122E-02    0.66       1.0  T
   6   -100.7440533 -0.121931E-04  0.292E-03    0.66       4.0  T
   7   -100.7440537 -0.360769E-06  0.183E-03    0.66       6.5  T
   8   -100.7440538 -0.144303E-06  0.781E-04    0.66      15.1  T
   9   -100.7440539 -0.381383E-07  0.218E-04    0.66      54.1  T
     SCC iter.                  ...        0 min,  0.073 sec
     gradient                   ...        0 min,  0.069 sec
 * total energy  :  -103.6015841 Eh     change       -0.6200395E-03 Eh
   gradient norm :     0.0164504 Eh/α   predicted    -0.5885912E-03 (  -5.07%)
   displ. norm   :     0.3102073 α      lambda       -0.6919287E-03
   maximum displ.:     0.1491774 α      in ANC's #40, #6, #9, ...

........................................................................
.............................. CYCLE   30 ..............................
........................................................................

 iter      E             dE          RMSdq      gap      omega  full diag
   1   -100.7483141 -0.100748E+03  0.972E-02    0.71       0.0  T
   2   -100.7480865  0.227613E-03  0.723E-02    0.67       1.0  T
   3   -100.7460851  0.200141E-02  0.157E-01    0.79       1.0  T
   4   -100.7483226 -0.223748E-02  0.120E-02    0.70       1.0  T
   5   -100.7483316 -0.906290E-05  0.867E-03    0.70       1.4  T
   6   -100.7483364 -0.475980E-05  0.287E-03    0.70       4.1  T
   7   -100.7483369 -0.536339E-06  0.102E-03    0.70      11.5  T
   8   -100.7483370 -0.505532E-07  0.311E-04    0.70      37.9  T
   9   -100.7483370 -0.842304E-08  0.109E-04    0.70     108.4  T
     SCC iter.                  ...        0 min,  0.073 sec
     gradient                   ...        0 min,  0.069 sec
 * total energy  :  -103.6020269 Eh     change       -0.4427581E-03 Eh
   gradient norm :     0.0284556 Eh/α   predicted    -0.3792611E-03 ( -14.34%)
   displ. norm   :     0.5265466 α      lambda       -0.7616914E-03
   maximum displ.:     0.2602661 α      in ANC's #40, #31, #13, ...

........................................................................
.............................. CYCLE   31 ..............................
........................................................................

 iter      E             dE          RMSdq      gap      omega  full diag
   1   -100.7430221 -0.100743E+03  0.200E-01    0.78       0.0  T
   2   -100.7401907  0.283137E-02  0.231E-01    0.72       1.0  T
   3   -100.7426927 -0.250196E-02  0.142E-01    0.76       1.0  T
   4   -100.7418409  0.851845E-03  0.129E-01    0.85       1.0  T
   5   -100.7436044 -0.176355E-02  0.214E-02    0.74       1.0  T
   6   -100.7436440 -0.395496E-04  0.414E-03    0.75       2.8  T
   7   -100.7436453 -0.131232E-05  0.204E-03    0.75       5.8  T
   8   -100.7436454 -0.154950E-06  0.938E-04    0.75      12.6  T
   9   -100.7436455 -0.656213E-07  0.195E-04    0.75      60.4  T
     SCC iter.                  ...        0 min,  0.073 sec
     gradient                   ...        0 min,  0.069 sec
 * total energy  :  -103.6021234 Eh     change       -0.9646571E-04 Eh
   gradient norm :     0.0473342 Eh/α   predicted    -0.4864370E-03 ( 404.26%)
   displ. norm   :     0.2448613 α      lambda       -0.2116980E-02
   maximum displ.:     0.1096261 α      in ANC's #9, #1, #137, ...

........................................................................
.............................. CYCLE   32 ..............................
........................................................................

 iter      E             dE          RMSdq      gap      omega  full diag
   1   -100.7555819 -0.100756E+03  0.117E-01    0.74       0.0  T
   2   -100.7525998  0.298210E-02  0.229E-01    0.78       1.0  T
   3   -100.7561223 -0.352254E-02  0.526E-02    0.77       1.0  T
   4   -100.7549532  0.116915E-02  0.108E-01    0.68       1.0  T
   5   -100.7561492 -0.119600E-02  0.214E-02    0.77       1.0  T
   6   -100.7561818 -0.326027E-04  0.621E-03    0.76       1.9  T
   7   -100.7561834 -0.159837E-05  0.338E-03    0.76       3.5  T
   8   -100.7561838 -0.428794E-06  0.119E-03    0.76       9.9  T
   9   -100.7561839 -0.128237E-06  0.216E-04    0.76      54.6  T
  10   -100.7561839 -0.128416E-08  0.118E-04    0.76      99.8  T
     SCC iter.                  ...        0 min,  0.080 sec
     gradient                   ...        0 min,  0.069 sec
 * total energy  :  -103.6022868 Eh     change       -0.1634211E-03 Eh
   gradient norm :     0.0308829 Eh/α   predicted    -0.1121957E-02 ( 586.54%)
   displ. norm   :     0.1628025 α      lambda       -0.2028241E-02
   maximum displ.:     0.0727809 α      in ANC's #40, #42, #43, ...

........................................................................
.............................. CYCLE   33 ..............................
........................................................................

 iter      E             dE          RMSdq      gap      omega  full diag
   1   -100.7517917 -0.100752E+03  0.766E-02    0.78       0.0  T
   2   -100.7516940  0.977487E-04  0.519E-02    0.75       1.0  T
   3   -100.7503694  0.132463E-02  0.122E-01    0.86       1.0  T
   4   -100.7517817 -0.141236E-02  0.164E-02    0.78       1.0  T
   5   -100.7518029 -0.211689E-04  0.577E-03    0.77       2.0  T
   6   -100.7518047 -0.176625E-05  0.177E-03    0.77       6.7  T
   7   -100.7518048 -0.107395E-06  0.474E-04    0.77      24.9  T
   8   -100.7518048 -0.106909E-07  0.242E-04    0.77      48.6  T
     SCC iter.                  ...        0 min,  0.065 sec
     gradient                   ...        0 min,  0.071 sec
 * total energy  :  -103.6027916 Eh     change       -0.5047879E-03 Eh
   gradient norm :     0.0285077 Eh/α   predicted    -0.1041004E-02 ( 106.23%)
   displ. norm   :     0.1720895 α      lambda       -0.1124890E-02
   maximum displ.:     0.0878798 α      in ANC's #40, #43, #7, ...

........................................................................
.............................. CYCLE   34 ..............................
........................................................................

 iter      E             dE          RMSdq      gap      omega  full diag
   1   -100.7483561 -0.100748E+03  0.931E-02    0.81       0.0  T
   2   -100.7470494  0.130667E-02  0.144E-01    0.78       1.0  T
   3   -100.7484869 -0.143744E-02  0.560E-02    0.78       1.0  T
   4   -100.7479943  0.492597E-03  0.762E-02    0.85       1.0  T
   5   -100.7486276 -0.633346E-03  0.734E-03    0.79       1.6  T
   6   -100.7486309 -0.329644E-05  0.247E-03    0.79       4.8  T
   7   -100.7486314 -0.453770E-06  0.115E-03    0.79      10.3  T
   8   -100.7486314 -0.415471E-07  0.439E-04    0.79      26.8  T
   9   -100.7486314 -0.167908E-07  0.108E-04    0.79     109.1  T
     SCC iter.                  ...        0 min,  0.073 sec
     gradient                   ...        0 min,  0.069 sec
 * total energy  :  -103.6032088 Eh     change       -0.4172211E-03 Eh
   gradient norm :     0.0230366 Eh/α   predicted    -0.5790999E-03 (  38.80%)
   displ. norm   :     0.0634399 α      lambda       -0.4015063E-03
   maximum displ.:     0.0303412 α      in ANC's #1, #9, #2, ...

........................................................................
.............................. CYCLE   35 ..............................
........................................................................

 iter      E             dE          RMSdq      gap      omega  full diag
   1   -100.7507250 -0.100751E+03  0.237E-02    0.79       0.0  T
   2   -100.7506783  0.467332E-04  0.287E-02    0.79       1.0  T
   3   -100.7507193 -0.410341E-04  0.177E-02    0.79       1.0  T
   4   -100.7506957  0.236122E-04  0.192E-02    0.80       1.0  T
   5   -100.7507349 -0.392177E-04  0.255E-03    0.79       4.6  T
   6   -100.7507354 -0.429949E-06  0.119E-03    0.79       9.9  T
   7   -100.7507355 -0.867375E-07  0.681E-04    0.79      17.3  T
   8   -100.7507355 -0.220913E-07  0.164E-04    0.79      71.9  T
     SCC iter.                  ...        0 min,  0.065 sec
     gradient                   ...        0 min,  0.069 sec
 * total energy  :  -103.6034397 Eh     change       -0.2309593E-03 Eh
   gradient norm :     0.0161226 Eh/α   predicted    -0.2015619E-03 ( -12.73%)
   displ. norm   :     0.1743691 α      lambda       -0.3724476E-03
   maximum displ.:     0.0761524 α      in ANC's #1, #7, #40, ...

........................................................................
.............................. CYCLE   36 ..............................
........................................................................

 iter      E             dE          RMSdq      gap      omega  full diag
   1   -100.7533587 -0.100753E+03  0.590E-02    0.80       0.0  T
   2   -100.7531097  0.249020E-03  0.736E-02    0.80       1.0  T
   3   -100.7533566 -0.246949E-03  0.364E-02    0.81       1.0  T
   4   -100.7530868  0.269845E-03  0.541E-02    0.76       1.0  T
   5   -100.7534074 -0.320651E-03  0.625E-03    0.80       1.9  T
   6   -100.7534105 -0.308812E-05  0.131E-03    0.80       9.0  T
   7   -100.7534106 -0.752537E-07  0.710E-04    0.80      16.6  T
   8   -100.7534106 -0.923686E-08  0.322E-04    0.80      36.6  T
     SCC iter.                  ...        0 min,  0.065 sec
     gradient                   ...        0 min,  0.069 sec
 * total energy  :  -103.6037135 Eh     change       -0.2737722E-03 Eh
   gradient norm :     0.0182138 Eh/α   predicted    -0.1918890E-03 ( -29.91%)
   displ. norm   :     0.3937093 α      lambda       -0.6243397E-03
   maximum displ.:     0.1665999 α      in ANC's #1, #40, #7, ...

........................................................................
.............................. CYCLE   37 ..............................
........................................................................

 iter      E             dE          RMSdq      gap      omega  full diag
   1   -100.7531613 -0.100753E+03  0.135E-01    0.85       0.0  T
   2   -100.7525620  0.599326E-03  0.116E-01    0.81       1.0  T
   3   -100.7525422  0.197811E-04  0.116E-01    0.84       1.0  T
   4   -100.7528674 -0.325169E-03  0.647E-02    0.88       1.0  T
   5   -100.7533129 -0.445490E-03  0.788E-03    0.83       1.5  T
   6   -100.7533178 -0.490109E-05  0.340E-03    0.83       3.5  T
   7   -100.7533188 -0.100001E-05  0.128E-03    0.83       9.2  T
   8   -100.7533188 -0.433550E-07  0.423E-04    0.83      27.9  T
   9   -100.7533188 -0.116244E-07  0.125E-04    0.83      94.1  T
     SCC iter.                  ...        0 min,  0.072 sec
     gradient                   ...        0 min,  0.072 sec
 * total energy  :  -103.6041174 Eh     change       -0.4038487E-03 Eh
   gradient norm :     0.0341228 Eh/α   predicted    -0.3605603E-03 ( -10.72%)
   displ. norm   :     0.3590619 α      lambda       -0.7169945E-03
   maximum displ.:     0.1346837 α      in ANC's #6, #8, #12, ...

........................................................................
.............................. CYCLE   38 ..............................
........................................................................

 iter      E             dE          RMSdq      gap      omega  full diag
   1   -100.7550777 -0.100755E+03  0.897E-02    0.84       0.0  T
   2   -100.7541007  0.976964E-03  0.124E-01    0.82       1.0  T
   3   -100.7551068 -0.100612E-02  0.596E-02    0.82       1.0  T
   4   -100.7547805  0.326346E-03  0.709E-02    0.89       1.0  T
   5   -100.7552981 -0.517584E-03  0.750E-03    0.83       1.6  T
   6   -100.7553022 -0.414926E-05  0.317E-03    0.83       3.7  T
   7   -100.7553030 -0.805919E-06  0.138E-03    0.83       8.6  T
   8   -100.7553031 -0.872248E-07  0.534E-04    0.83      22.1  T
   9   -100.7553031 -0.188864E-07  0.109E-04    0.83     108.0  T
     SCC iter.                  ...        0 min,  0.073 sec
     gradient                   ...        0 min,  0.069 sec
 * total energy  :  -103.6041838 Eh     change       -0.6642811E-04 Eh
   gradient norm :     0.0443429 Eh/α   predicted    -0.4047186E-03 ( 509.26%)
   displ. norm   :     0.3295517 α      lambda       -0.8924733E-03
   maximum displ.:     0.1377843 α      in ANC's #1, #31, #40, ...

........................................................................
.............................. CYCLE   39 ..............................
........................................................................

 iter      E             dE          RMSdq      gap      omega  full diag
   1   -100.7514236 -0.100751E+03  0.121E-01    0.86       0.0  T
   2   -100.7512589  0.164642E-03  0.796E-02    0.86       1.0  T
   3   -100.7495735  0.168538E-02  0.156E-01    0.82       1.0  T
   4   -100.7512410 -0.166750E-02  0.447E-02    0.89       1.0  T
   5   -100.7514552 -0.214204E-03  0.658E-03    0.85       1.8  T
   6   -100.7514578 -0.250786E-05  0.342E-03    0.85       3.4  T
   7   -100.7514582 -0.447821E-06  0.178E-03    0.85       6.6  T
   8   -100.7514584 -0.213353E-06  0.559E-04    0.85      21.1  T
   9   -100.7514584 -0.238180E-07  0.157E-04    0.85      75.1  T
     SCC iter.                  ...        0 min,  0.073 sec
     gradient                   ...        0 min,  0.069 sec
 * total energy  :  -103.6043511 Eh     change       -0.1672735E-03 Eh
   gradient norm :     0.0351140 Eh/α   predicted    -0.4947009E-03 ( 195.74%)
   displ. norm   :     0.2075982 α      lambda       -0.6044511E-03
   maximum displ.:     0.0752017 α      in ANC's #1, #31, #40, ...

........................................................................
.............................. CYCLE   40 ..............................
........................................................................

 iter      E             dE          RMSdq      gap      omega  full diag
   1   -100.7552297 -0.100755E+03  0.773E-02    0.84       0.0  T
   2   -100.7551574  0.722949E-04  0.515E-02    0.84       1.0  T
   3   -100.7546161  0.541340E-03  0.933E-02    0.86       1.0  T
   4   -100.7551245 -0.508385E-03  0.334E-02    0.81       1.0  T
   5   -100.7552446 -0.120132E-03  0.366E-03    0.84       3.2  T
   6   -100.7552455 -0.896295E-06  0.157E-03    0.84       7.5  T
   7   -100.7552456 -0.972502E-07  0.629E-04    0.84      18.7  T
   8   -100.7552456 -0.209839E-07  0.284E-04    0.84      41.5  T
     SCC iter.                  ...        0 min,  0.065 sec
     gradient                   ...        0 min,  0.069 sec
 * total energy  :  -103.6046045 Eh     change       -0.2534437E-03 Eh
   gradient norm :     0.0122115 Eh/α   predicted    -0.3152554E-03 (  24.39%)
   displ. norm   :     0.1300606 α      lambda       -0.1486731E-03
   maximum displ.:     0.0514632 α      in ANC's #2, #6, #1, ...

........................................................................
.............................. CYCLE   41 ..............................
........................................................................

 iter      E             dE          RMSdq      gap      omega  full diag
   1   -100.7550661 -0.100755E+03  0.296E-02    0.85       0.0  T
   2   -100.7550621  0.402110E-05  0.182E-02    0.85       1.0  T
   3   -100.7550027  0.593954E-04  0.297E-02    0.85       1.0  T
   4   -100.7550643 -0.616325E-04  0.597E-03    0.85       2.0  T
   5   -100.7550674 -0.302833E-05  0.212E-03    0.85       5.5  T
   6   -100.7550677 -0.359430E-06  0.123E-03    0.85       9.5  T
   7   -100.7550678 -0.790543E-07  0.562E-04    0.85      21.0  T
   8   -100.7550678 -0.225337E-07  0.909E-05    0.85     129.7  T
     SCC iter.                  ...        0 min,  0.065 sec
     gradient                   ...        0 min,  0.069 sec
 * total energy  :  -103.6047028 Eh     change       -0.9832130E-04 Eh
   gradient norm :     0.0108788 Eh/α   predicted    -0.7559476E-04 ( -23.11%)
   displ. norm   :     0.2346313 α      lambda       -0.2454047E-03
   maximum displ.:     0.1076089 α      in ANC's #6, #2, #1, ...

........................................................................
.............................. CYCLE   42 ..............................
........................................................................

 iter      E             dE          RMSdq      gap      omega  full diag
   1   -100.7545047 -0.100755E+03  0.399E-02    0.85       0.0  T
   2   -100.7544955  0.916366E-05  0.269E-02    0.86       1.0  T
   3   -100.7543555  0.140044E-03  0.401E-02    0.82       1.0  T
   4   -100.7544882 -0.132759E-03  0.146E-02    0.86       1.0  T
   5   -100.7545067 -0.184367E-04  0.524E-03    0.85       2.3  T
   6   -100.7545090 -0.230851E-05  0.758E-04    0.85      15.6  T
   7   -100.7545090 -0.211605E-07  0.371E-04    0.85      31.8  T
   8   -100.7545090 -0.236497E-08  0.113E-04    0.85     104.4  T
     SCC iter.                  ...        0 min,  0.066 sec
     gradient                   ...        0 min,  0.069 sec
 * total energy  :  -103.6048813 Eh     change       -0.1784554E-03 Eh
   gradient norm :     0.0078257 Eh/α   predicted    -0.1294602E-03 ( -27.46%)
   displ. norm   :     0.3946024 α      lambda       -0.3182144E-03
   maximum displ.:     0.1905019 α      in ANC's #6, #2, #1, ...
 * RMSD in coord.:     0.4431276 α      energy gain  -0.5753779E-02 Eh

generating ANC from model Hessian ...
Using Lindh-Hessian (1995)
 Shifting diagonal of input Hessian by    9.9447756521532701E-003
 Lowest  eigenvalues of input Hessian
    0.000000    0.000000    0.000000    0.000000    0.000000    0.000000
    0.010000    0.010023    0.010092    0.010195    0.010264    0.010565
    0.010675    0.010803    0.010894    0.011666    0.011749    0.012350
 Highest eigenvalues
    2.042449    2.047820    2.181702    2.184984    2.621281    3.874210


........................................................................
.............................. CYCLE   43 ..............................
........................................................................

 iter      E             dE          RMSdq      gap      omega  full diag
   1   -100.7537717 -0.100754E+03  0.618E-02    0.86       0.0  T
   2   -100.7537345  0.371687E-04  0.402E-02    0.88       1.0  T
   3   -100.7529756  0.758937E-03  0.919E-02    0.81       1.0  T
   4   -100.7537760 -0.800429E-03  0.491E-03    0.86       2.4  T
   5   -100.7537776 -0.155210E-05  0.284E-03    0.86       4.2  T
   6   -100.7537782 -0.659126E-06  0.143E-03    0.86       8.2  T
   7   -100.7537783 -0.100610E-06  0.612E-04    0.86      19.3  T
   8   -100.7537784 -0.149328E-07  0.270E-04    0.86      43.6  T
     SCC iter.                  ...        0 min,  0.065 sec
     gradient                   ...        0 min,  0.069 sec
 * total energy  :  -103.6050643 Eh     change       -0.1830077E-03 Eh
   gradient norm :     0.0261698 Eh/α   predicted     0.0000000E+00 (-100.00%)
   displ. norm   :     0.0784268 α      lambda       -0.4924125E-03
   maximum displ.:     0.0451375 α      in ANC's #33, #11, #13, ...

........................................................................
.............................. CYCLE   44 ..............................
........................................................................

 iter      E             dE          RMSdq      gap      omega  full diag
   1   -100.7556552 -0.100756E+03  0.366E-02    0.86       0.0  T
   2   -100.7556362  0.189417E-04  0.248E-02    0.87       1.0  T
   3   -100.7553832  0.253028E-03  0.526E-02    0.82       1.0  T
   4   -100.7556498 -0.266620E-03  0.995E-03    0.86       1.2  T
   5   -100.7556580 -0.823196E-05  0.218E-03    0.86       5.4  T
   6   -100.7556583 -0.296457E-06  0.698E-04    0.86      16.9  T
   7   -100.7556584 -0.148694E-07  0.417E-04    0.86      28.3  T
     SCC iter.                  ...        0 min,  0.057 sec
     gradient                   ...        0 min,  0.069 sec
 * total energy  :  -103.6049350 Eh     change        0.1293359E-03 Eh
   gradient norm :     0.0696243 Eh/α   predicted    -0.2477288E-03 (-291.54%)
   displ. norm   :     0.0489607 α      lambda       -0.6422701E-03
   maximum displ.:     0.0278570 α      in ANC's #33, #11, #13, ...

........................................................................
.............................. CYCLE   45 ..............................
........................................................................

 iter      E             dE          RMSdq      gap      omega  full diag
   1   -100.7557137 -0.100756E+03  0.231E-02    0.86       0.0  T
   2   -100.7556996  0.141640E-04  0.198E-02    0.86       1.0  T
   3   -100.7556994  0.168317E-06  0.180E-02    0.86       1.0  T
   4   -100.7557086 -0.917960E-05  0.950E-03    0.85       1.2  T
   5   -100.7557180 -0.940172E-05  0.151E-03    0.86       7.8  T
   6   -100.7557182 -0.186279E-06  0.553E-04    0.86      21.3  T
   7   -100.7557182 -0.222128E-07  0.226E-04    0.86      52.0  T
     SCC iter.                  ...        0 min,  0.057 sec
     gradient                   ...        0 min,  0.069 sec
 * total energy  :  -103.6052887 Eh     change       -0.3537348E-03 Eh
   gradient norm :     0.0052177 Eh/α   predicted    -0.3219064E-03 (  -9.00%)
   displ. norm   :     0.0659520 α      lambda       -0.6083721E-04
   maximum displ.:     0.0310108 α      in ANC's #33, #11, #6, ...

........................................................................
.............................. CYCLE   46 ..............................
........................................................................

 iter      E             dE          RMSdq      gap      omega  full diag
   1   -100.7557308 -0.100756E+03  0.262E-02    0.85       0.0  T
   2   -100.7557218  0.902721E-05  0.188E-02    0.86       1.0  T
   3   -100.7556863  0.354529E-04  0.243E-02    0.84       1.0  T
   4   -100.7557242 -0.379086E-04  0.991E-03    0.86       1.2  T
   5   -100.7557332 -0.898812E-05  0.223E-03    0.86       5.3  T
   6   -100.7557337 -0.464164E-06  0.400E-04    0.86      29.4  T
   7   -100.7557337 -0.153862E-07  0.146E-04    0.86      80.8  T
     SCC iter.                  ...        0 min,  0.058 sec
     gradient                   ...        0 min,  0.069 sec
 * total energy  :  -103.6053381 Eh     change       -0.4941407E-04 Eh
   gradient norm :     0.0044520 Eh/α   predicted    -0.3055191E-04 ( -38.17%)
   displ. norm   :     0.1649606 α      lambda       -0.1076519E-03
   maximum displ.:     0.0633126 α      in ANC's #33, #6, #11, ...

........................................................................
.............................. CYCLE   47 ..............................
........................................................................

 iter      E             dE          RMSdq      gap      omega  full diag
   1   -100.7553683 -0.100755E+03  0.562E-02    0.85       0.0  T
   2   -100.7553338  0.345059E-04  0.395E-02    0.87       1.0  T
   3   -100.7551638  0.169975E-03  0.521E-02    0.82       1.0  T
   4   -100.7553518 -0.187975E-03  0.172E-02    0.87       1.0  T
   5   -100.7553767 -0.249226E-04  0.620E-03    0.85       1.9  T
   6   -100.7553803 -0.361183E-05  0.903E-04    0.86      13.1  T
   7   -100.7553804 -0.817361E-07  0.320E-04    0.86      36.9  T
   8   -100.7553804 -0.132682E-08  0.142E-04    0.86      82.7  T
     SCC iter.                  ...        0 min,  0.065 sec
     gradient                   ...        0 min,  0.069 sec
 * total energy  :  -103.6054091 Eh     change       -0.7101061E-04 Eh
   gradient norm :     0.0069982 Eh/α   predicted    -0.5531025E-04 ( -22.11%)
   displ. norm   :     0.1203477 α      lambda       -0.4991124E-04
   maximum displ.:     0.0506639 α      in ANC's #6, #9, #2, ...

........................................................................
.............................. CYCLE   48 ..............................
........................................................................

 iter      E             dE          RMSdq      gap      omega  full diag
   1   -100.7552687 -0.100755E+03  0.295E-02    0.85       0.0  T
   2   -100.7552652  0.354090E-05  0.191E-02    0.86       1.0  T
   3   -100.7552149  0.502428E-04  0.271E-02    0.84       1.0  T
   4   -100.7552706 -0.557126E-04  0.212E-03    0.86       5.6  T
   5   -100.7552704  0.249860E-06  0.234E-03    0.86       5.0  T
   6   -100.7552709 -0.549947E-06  0.414E-04    0.86      28.5  T
   7   -100.7552709 -0.108650E-07  0.234E-04    0.86      50.5  T
     SCC iter.                  ...        0 min,  0.057 sec
     gradient                   ...        0 min,  0.069 sec
 * total energy  :  -103.6054483 Eh     change       -0.3915252E-04 Eh
   gradient norm :     0.0055629 Eh/α   predicted    -0.2536966E-04 ( -35.20%)
   displ. norm   :     0.1789559 α      lambda       -0.6843601E-04
   maximum displ.:     0.0789150 α      in ANC's #6, #9, #2, ...

........................................................................
.............................. CYCLE   49 ..............................
........................................................................

 iter      E             dE          RMSdq      gap      omega  full diag
   1   -100.7552212 -0.100755E+03  0.330E-02    0.86       0.0  T
   2   -100.7552214 -0.180534E-06  0.197E-02    0.85       1.0  T
   3   -100.7551435  0.779499E-04  0.285E-02    0.88       1.0  T
   4   -100.7552186 -0.751474E-04  0.694E-03    0.85       1.7  T
   5   -100.7552232 -0.453815E-05  0.696E-04    0.86      16.9  T
   6   -100.7552232 -0.507170E-08  0.573E-04    0.86      20.6  T
   7   -100.7552232 -0.204071E-07  0.283E-04    0.86      41.7  T
     SCC iter.                  ...        0 min,  0.057 sec
     gradient                   ...        0 min,  0.069 sec
 * total energy  :  -103.6054989 Eh     change       -0.5060366E-04 Eh
   gradient norm :     0.0029356 Eh/α   predicted    -0.3531511E-04 ( -30.21%)
   displ. norm   :     0.1855645 α      lambda       -0.5713323E-04
   maximum displ.:     0.0830101 α      in ANC's #6, #2, #9, ...

........................................................................
.............................. CYCLE   50 ..............................
........................................................................

 iter      E             dE          RMSdq      gap      omega  full diag
   1   -100.7550231 -0.100755E+03  0.293E-02    0.86       0.0  T
   2   -100.7550183  0.480155E-05  0.187E-02    0.85       1.0  T
   3   -100.7549543  0.640379E-04  0.286E-02    0.88       1.0  T
   4   -100.7550162 -0.619887E-04  0.102E-02    0.85       1.2  T
   5   -100.7550239 -0.762123E-05  0.517E-03    0.86       2.3  T
   6   -100.7550261 -0.224749E-05  0.402E-04    0.86      29.3  T
   7   -100.7550261 -0.457089E-08  0.240E-04    0.86      49.2  T
   8   -100.7550261 -0.110248E-08  0.115E-04    0.86     102.3  T
     SCC iter.                  ...        0 min,  0.065 sec
     gradient                   ...        0 min,  0.069 sec
 * total energy  :  -103.6055416 Eh     change       -0.4272198E-04 Eh
   gradient norm :     0.0033879 Eh/α   predicted    -0.2955364E-04 ( -30.82%)
   displ. norm   :     0.1863853 α      lambda       -0.5296082E-04
   maximum displ.:     0.0825889 α      in ANC's #2, #6, #9, ...

   *** GEOMETRY OPTIMIZATION CONVERGED AFTER 50 ITERATIONS ***

------------------------------------------------------------------------
 total energy gain   :        -2.2136124 Eh    -1389.0627 kcal/mol
 total RMSD          :         0.6466419 a0        0.3422 Å
 total power (kW/mol):      -116.2367691 (step) -706.6946 (real)
------------------------------------------------------------------------

 ANCopt (total)                0 d,  0 h,  0 min,  8.224 sec
 optimizer setup                ...        0 min,  0.000 sec (  0.003%)
 model hessian                  ...        0 min,  0.158 sec (  1.917%)
 ANC generation                 ...        0 min,  0.020 sec (  0.239%)
 coordinate transformation      ...        0 min,  0.003 sec (  0.042%)
 single point calculation       ...        0 min,  7.978 sec ( 97.013%)
 optimization log               ...        0 min,  0.013 sec (  0.154%)
 hessian update                 ...        0 min,  0.003 sec (  0.040%)
 rational function              ...        0 min,  0.024 sec (  0.291%)

================
 final structure:
================
72
 xtb: 6.6.1 (8d0f1dd)
N           -2.20279535922100        2.09352914565436        2.42501713064147
C           -1.90006600212664        2.21449550583212        1.10285370969565
C           -2.91076870524289        1.85177937517613        0.12563515648329
C           -3.46676872876515        0.44428924434316        0.25660532139675
C           -4.51398526201963        0.03101811645873       -0.57171730262693
C           -5.03452849638044       -1.24918411006342       -0.50576931019886
O           -6.03563789828681       -1.72515565636740       -1.27797422518273
C           -6.63908228700697       -0.87758398615054       -2.22597853340459
C           -4.50072863021415       -2.17437702351299        0.42892288148130
O           -5.07942052320488       -3.39352089302261        0.43937729579544
C           -4.63094766433148       -4.35160247085649        1.36846948408436
C           -3.44557666671974       -1.77062139730936        1.22817180177336
C           -2.93021643012179       -0.48236329870796        1.13578739437993
C           -2.41458817661777        2.08828941056363       -1.30818205431748
C           -1.45015504037203        0.98576110094171       -1.77931583834804
C           -0.16502741847862        1.01865475692725       -1.05010384919136
N            0.46937517604964       -0.03300825132595       -0.53433806868136
C            1.84544731609826        0.09270720498429       -0.11722250555324
C            2.81485145907817       -0.31793043838205       -1.24410356168485
C            4.23884984639375       -0.09335817127352       -0.82213271774604
C            4.85279360381371        1.12998075115091       -1.02837777356800
C            6.16434525364363        1.34163861422502       -0.63045852227891
C            6.88620948456315        0.33210895892158       -0.01218091751707
O            8.16515872735363        0.42318658026340        0.40624877494993
C            8.87322717145354        1.62027219966169        0.18390812041206
C            6.26131643190709       -0.92358911449710        0.21302749053051
O            7.03395326012973       -1.85026667605428        0.82024659001898
[...]
         :: -> anisotropic XC          0.037867705111 Eh    ::
         :: -> dispersion             -0.075587998382 Eh    ::
         :: repulsion energy           1.595821144064 Eh    ::
         :: add. restraining          -4.447617040875 Eh    ::
         :: total charge               1.000000000000 e     ::
         :::::::::::::::::::::::::::::::::::::::::::::::::::::

           -------------------------------------------------
          |                Property Printout                |
           -------------------------------------------------

    * Orbital Energies and Occupations

         #    Occupation            Energy/Eh            Energy/eV
      -------------------------------------------------------------
         1        2.0000           -0.8017459             -21.8166
       ...           ...                  ...                  ...
        78        1.9994           -0.5306858             -14.4407
        79        1.9993           -0.5272823             -14.3481
        80        1.9991           -0.5234919             -14.2449
        81        1.9991           -0.5222141             -14.2102
        82        1.9990           -0.5220931             -14.2069
        83        1.9988           -0.5186323             -14.1127
        84        1.9984           -0.5139566             -13.9855
        85        1.9980           -0.5102055             -13.8834
        86        1.9903           -0.4853409             -13.2068
        87        1.9846           -0.4779637             -13.0061
        88        1.9337           -0.4544591             -12.3665
        89        1.8888           -0.4459053             -12.1337
        90        1.4651           -0.4170072             -11.3473 (HOMO)
        91        0.5426           -0.3854093             -10.4875 (LUMO)
        92        0.1874           -0.3651250              -9.9356
        93        0.0069           -0.3112986              -8.4709
        94        0.0058           -0.3085654              -8.3965
        95        0.0038           -0.3017371              -8.2107
        96        0.0032           -0.2992032              -8.1417
        97        0.0000           -0.1870355              -5.0895
        98        0.0000           -0.1764020              -4.8001
        99                         -0.1234006              -3.3579
       100                         -0.1146947              -3.1210
       101                         -0.0616074              -1.6764
       ...                                ...                  ...
       171                          1.2614596              34.3261
      -------------------------------------------------------------
                  HL-Gap            0.0315979 Eh            0.8598 eV
             Fermi-level           -0.4010534 Eh          -10.9132 eV

     #   Z          covCN         q      C6AA      α(0)
     1   7 N        2.637    -0.226    25.950     7.566
     2   6 C        2.831    -0.002    28.077     8.683
     3   6 C        3.876     0.007    20.416     6.425
     4   6 C        2.969    -0.004    28.113     8.697
     5   6 C        2.922    -0.081    30.029     8.986
     6   6 C        2.862     0.128    25.188     8.226
     7   8 O        1.706    -0.236    17.906     5.713
     8   6 C        3.644     0.030    20.410     6.494
     9   6 C        2.865     0.127    25.211     8.230
    10   8 O        1.706    -0.234    17.886     5.710
    11   6 C        3.646     0.029    20.420     6.494
    12   6 C        2.914    -0.078    29.957     8.975
    13   6 C        2.922    -0.063    29.573     8.918
    14   6 C        3.811    -0.068    21.794     6.645
    15   6 C        3.803    -0.068    21.802     6.648
    16   6 C        2.845    -0.008    28.220     8.706
    17   7 N        2.729     0.008    21.118     6.825
    18   6 C        3.757    -0.018    20.946     6.525
    19   6 C        3.808    -0.070    21.835     6.652
    20   6 C        2.969    -0.003    28.088     8.693
    21   6 C        2.922    -0.051    29.267     8.872
    22   6 C        2.914    -0.069    29.724     8.940
    23   6 C        2.865     0.131    25.134     8.218
    24   8 O        1.706    -0.229    17.798     5.696
    25   6 C        3.645     0.027    20.449     6.499
    26   6 C        2.863     0.131    25.137     8.218
    27   8 O        1.706    -0.231    17.834     5.702
    28   6 C        3.645     0.029    20.417     6.494
    29   6 C        2.920    -0.081    30.018     8.985
    30   6 C        3.700    -0.072    22.047     6.715
    31   6 C        3.821    -0.008    20.705     6.476
    32   6 C        2.840    -0.123    31.120     9.142
    33   6 C        3.757    -0.115    22.754     6.801
    34   1 H        0.926     0.046     2.364     2.404
    35   1 H        0.924     0.049     2.332     2.388
    36   1 H        0.925     0.079     1.992     2.207
    37   1 H        0.924     0.045     2.384     2.415
    38   1 H        0.924     0.050     2.314     2.379
    39   1 H        0.925     0.079     1.993     2.207
    40   1 H        0.924     0.046     2.377     2.411
    41   1 H        0.926     0.047     2.363     2.404
    42   1 H        0.926     0.036     2.502     2.474
    43   1 H        0.925     0.058     2.227     2.334
    44   1 H        0.925     0.053     2.280     2.361
    45   1 H        0.925     0.064     2.155     2.295
    46   1 H        0.924     0.075     2.031     2.229
    47   1 H        0.926     0.048     2.342     2.393
    48   1 H        0.926     0.061     2.189     2.313
    49   1 H        0.924     0.065     2.143     2.289
    50   1 H        0.924     0.066     2.135     2.285
    51   1 H        0.924     0.052     2.292     2.368
    52   1 H        0.924     0.053     2.277     2.360
    53   1 H        0.926     0.041     2.437     2.441
    54   1 H        0.926     0.054     2.265     2.353
    55   1 H        0.924     0.051     2.312     2.378
    56   1 H        0.924     0.052     2.289     2.366
    57   1 H        0.925     0.079     1.989     2.206
    58   1 H        0.925     0.079     1.993     2.208
    59   1 H        0.924     0.046     2.376     2.411
    60   1 H        0.924     0.050     2.326     2.385
    61   1 H        0.926     0.044     2.391     2.418
    62   1 H        0.924     0.072     2.061     2.245
    63   1 H        0.924     0.081     1.969     2.195
    64   1 H        0.925     0.076     2.023     2.224
    65   1 H        0.924     0.067     2.121     2.277
    66   1 H        0.864     0.229     0.968     1.541
    67   1 H        0.926     0.032     2.560     2.502
    68   1 H        0.926     0.042     2.420     2.433
    69   1 H        0.925     0.042     2.425     2.435
    70   1 H        0.925     0.042     2.418     2.431
    71   1 H        0.925     0.057     2.235     2.338
    72   1 H        0.860     0.186     1.182     1.703

 Mol. C6AA /au·bohr⁶  :      47740.802906
 Mol. C8AA /au·bohr⁸  :    1090795.761515
 Mol. α(0) /au        :        336.578083


Wiberg/Mayer (AO) data.
largest (>0.10) Wiberg bond orders for each atom

 ---------------------------------------------------------------------------
     #   Z sym  total        # sym  WBO       # sym  WBO       # sym  WBO
 ---------------------------------------------------------------------------
     1   7 N    3.316 --     2 C    1.289    72 H    0.947    66 H    0.930
     2   6 C    3.593 --     1 N    1.289     3 C    1.131    47 H    0.967
                            32 C    0.128
     3   6 C    3.935 --     2 C    1.131    14 C    0.981     4 C    0.979
                            31 C    0.734
     4   6 C    3.954 --    13 C    1.422     5 C    1.364     3 C    0.979
     5   6 C    3.967 --     6 C    1.409     4 C    1.364    34 H    0.955
     6   6 C    3.918 --     5 C    1.409     9 C    1.228     7 O    1.093
     7   8 O    2.259 --     6 C    1.093     8 C    0.980
     8   6 C    3.936 --     7 O    0.980    36 H    0.977    37 H    0.975
                            35 H    0.974
     9   6 C    3.915 --    12 C    1.400     6 C    1.228    10 O    1.095
    10   8 O    2.258 --     9 C    1.095    11 C    0.979
    11   6 C    3.935 --    10 O    0.979    39 H    0.977    38 H    0.975
                            40 H    0.975
    12   6 C    3.969 --     9 C    1.400    13 C    1.395    41 H    0.965
    13   6 C    3.965 --     4 C    1.422    12 C    1.395    42 H    0.965
    14   6 C    3.972 --     3 C    0.981    15 C    0.979    44 H    0.971
                            43 H    0.971
    15   6 C    3.987 --    16 C    1.059    14 C    0.979    45 H    0.963
                            46 H    0.931
    16   6 C    3.520 --    17 N    1.379    15 C    1.059    48 H    0.959
    17   7 N    3.438 --    16 C    1.379    30 C    1.000    18 C    0.990
    18   6 C    3.957 --    17 N    0.990    50 H    0.968    49 H    0.966
                            19 C    0.965
    19   6 C    3.975 --    20 C    1.008    52 H    0.972    51 H    0.972
                            18 C    0.965
    20   6 C    3.954 --    21 C    1.416    29 C    1.376    19 C    1.008
    21   6 C    3.958 --    20 C    1.416    22 C    1.413    53 H    0.969
    22   6 C    3.965 --    21 C    1.413    23 C    1.390    54 H    0.964
    23   6 C    3.905 --    22 C    1.390    26 C    1.228    24 O    1.101
    24   8 O    2.254 --    23 C    1.101    25 C    0.978
    25   6 C    3.932 --    24 O    0.978    57 H    0.977    56 H    0.974
                            55 H    0.974
    26   6 C    3.908 --    29 C    1.401    23 C    1.228    27 O    1.095
    27   8 O    2.253 --    26 C    1.095    28 C    0.981
    28   6 C    3.936 --    27 O    0.981    58 H    0.977    59 H    0.974
                            60 H    0.974
    29   6 C    3.964 --    26 C    1.401    20 C    1.376    61 H    0.963
    30   6 C    3.959 --    17 N    1.000    64 H    0.978    62 H    0.966
                            63 H    0.959
    31   6 C    3.952 --    32 C    1.211    33 C    1.012    65 H    0.923
                             3 C    0.734
    32   6 C    3.420 --    31 C    1.211    67 H    0.982    68 H    0.981
                             2 C    0.128
    33   6 C    3.991 --    31 C    1.012    69 H    0.985    70 H    0.983
                            71 H    0.979
    34   1 H    0.997 --     5 C    0.955
    35   1 H    0.995 --     8 C    0.974
    36   1 H    0.993 --     8 C    0.977
    37   1 H    0.996 --     8 C    0.975
    38   1 H    0.995 --    11 C    0.975
    39   1 H    0.993 --    11 C    0.977
    40   1 H    0.995 --    11 C    0.975
    41   1 H    0.996 --    12 C    0.965
    42   1 H    0.998 --    13 C    0.965
    43   1 H    0.995 --    14 C    0.971
    44   1 H    0.996 --    14 C    0.971
    45   1 H    0.995 --    15 C    0.963
    46   1 H    0.967 --    15 C    0.931
    47   1 H    0.995 --     2 C    0.967
    48   1 H    0.996 --    16 C    0.959
    49   1 H    0.992 --    18 C    0.966
    50   1 H    0.994 --    18 C    0.968
    51   1 H    0.996 --    19 C    0.972
    52   1 H    0.996 --    19 C    0.972
    53   1 H    0.998 --    21 C    0.969
    54   1 H    0.996 --    22 C    0.964
    55   1 H    0.994 --    25 C    0.974
    56   1 H    0.993 --    25 C    0.974
    57   1 H    0.993 --    25 C    0.977
    58   1 H    0.993 --    28 C    0.977
    59   1 H    0.995 --    28 C    0.974
    60   1 H    0.994 --    28 C    0.974
    61   1 H    0.997 --    29 C    0.963
    62   1 H    0.983 --    30 C    0.966
    63   1 H    0.987 --    30 C    0.959
    64   1 H    0.994 --    30 C    0.978
    65   1 H    0.974 --    31 C    0.923
    66   1 H    0.947 --     1 N    0.930
    67   1 H    0.999 --    32 C    0.982
    68   1 H    0.998 --    32 C    0.981
    69   1 H    0.998 --    33 C    0.985
    70   1 H    0.997 --    33 C    0.983
    71   1 H    0.995 --    33 C    0.979
    72   1 H    0.963 --     1 N    0.947
 ---------------------------------------------------------------------------

Topologies differ in total number of bonds
Writing topology from bond orders to xtbtopo.mol

molecular dipole:
                 x           y           z       tot (Debye)
 q only:       -0.145       0.839       0.179
   full:       -0.241       1.071       0.204       2.837
molecular quadrupole (traceless):
                xx          xy          yy          xz          yz          zz
 q only:       34.709      -2.380      -7.610       1.975      -3.849     -27.100
  q+dip:       28.547      -1.686      -4.494       0.959      -4.277     -24.052
   full:       28.445      -2.992      -5.312      -1.222      -3.549     -23.133

           -------------------------------------------------
          |                Geometry Summary                 |
           -------------------------------------------------

      molecular mass/u    :      455.6105846
   center of mass at/Å    :       -0.0288297      -0.0051888       0.0016560
  moments of inertia/u·Å² :        0.2354372E+04   0.1109435E+05   0.1235123E+05
rotational constants/cm⁻¹ :        0.7160139E-02   0.1519480E-02   0.1364855E-02

 * 69 selected distances

     #   Z          #   Z                                           value/Å
     1   7 N        2   6 C                                       1.3617615
     2   6 C        3   6 C                                       1.4519089
     4   6 C        5   6 C                                       1.3977032
     5   6 C        6   6 C                                       1.3835579
     6   6 C        7   8 O                                       1.3509514
     7   8 O        8   6 C                                       1.4075636
     6   6 C        9   6 C                                       1.4193569
     9   6 C       10   8 O                                       1.3495576
    10   8 O       11   6 C                                       1.4079279
     9   6 C       12   6 C                                       1.3838943
     4   6 C       13   6 C                                       1.3854728
    12   6 C       13   6 C                                       1.3905899
     3   6 C       14   6 C                                       1.5355665
    14   6 C       15   6 C                                       1.5387227 (max)
    15   6 C       16   6 C                                       1.4779667
    16   6 C       17   7 N                                       1.3320947
    17   7 N       18   6 C                                       1.4433865
    20   6 C       21   6 C                                       1.3842046
    21   6 C       22   6 C                                       1.3868334
    22   6 C       23   6 C                                       1.3865445
    23   6 C       24   8 O                                       1.3487365
    24   8 O       25   6 C                                       1.4084781
    23   6 C       26   6 C                                       1.4205591
    26   6 C       27   8 O                                       1.3507088
    27   8 O       28   6 C                                       1.4069140
    20   6 C       29   6 C                                       1.3932150
    26   6 C       29   6 C                                       1.3850035
    17   7 N       30   6 C                                       1.4423478
    31   6 C       32   6 C                                       1.4380521
    31   6 C       33   6 C                                       1.5233160
     5   6 C       34   1 H                                       1.0774546
     8   6 C       35   1 H                                       1.0946883
     8   6 C       36   1 H                                       1.0883512
     8   6 C       37   1 H                                       1.0952645
    11   6 C       38   1 H                                       1.0945256
    11   6 C       39   1 H                                       1.0883160
    11   6 C       40   1 H                                       1.0950263
    12   6 C       41   1 H                                       1.0780138
    13   6 C       42   1 H                                       1.0784560
    14   6 C       43   1 H                                       1.0888050
    14   6 C       44   1 H                                       1.0896653
    15   6 C       45   1 H                                       1.0881698
    15   6 C       46   1 H                                       1.0978870
     2   6 C       47   1 H                                       1.0753835
    16   6 C       48   1 H                                       1.0782080
    18   6 C       49   1 H                                       1.0927505
    18   6 C       50   1 H                                       1.0916951
    19   6 C       51   1 H                                       1.0916422
    19   6 C       52   1 H                                       1.0906441
    21   6 C       53   1 H                                       1.0795818
    22   6 C       54   1 H                                       1.0776384
    25   6 C       55   1 H                                       1.0944587
    25   6 C       56   1 H                                       1.0943263
    25   6 C       57   1 H                                       1.0883108
    28   6 C       58   1 H                                       1.0882603
    28   6 C       59   1 H                                       1.0950545
    28   6 C       60   1 H                                       1.0946325
    29   6 C       61   1 H                                       1.0787967
    30   6 C       62   1 H                                       1.0931173
    30   6 C       63   1 H                                       1.0911415
    30   6 C       64   1 H                                       1.0874551
    31   6 C       65   1 H                                       1.0916356
     1   7 N       66   1 H                                       0.6957586 (min)
    32   6 C       67   1 H                                       1.0729378
    32   6 C       68   1 H                                       1.0718169
    33   6 C       69   1 H                                       1.0867672
    33   6 C       70   1 H                                       1.0855044
    33   6 C       71   1 H                                       1.0876886
     1   7 N       72   1 H                                       1.0137607

 * 5 distinct bonds (by element types)

   Z      Z             #   av. dist./Å        max./Å        min./Å
   1 H    6 C          37     1.0874073     1.0978870     1.0718169
   6 C    6 C          18     1.4268038     1.5387227     1.3835579
   1 H    7 N           2     0.8547596     1.0137607     0.6957586
   6 C    7 N           4     1.3948977     1.4433865     1.3320947
   6 C    8 O           8     1.3788547     1.4084781     1.3487365


optimized geometry written to: xtbopt.xyz


           -------------------------------------------------
          | TOTAL ENERGY             -103.605541595775 Eh   |
          | GRADIENT NORM               0.003388009583 Eh/α |
          | HOMO-LUMO GAP               0.859823117023 eV   |
           -------------------------------------------------

------------------------------------------------------------------------
 * finished run on 2024/04/06 at 11:15:27.830     
------------------------------------------------------------------------
 total:
 * wall-time:     0 d,  0 h,  0 min,  8.581 sec
 *  cpu-time:     0 d,  0 h,  0 min,  8.558 sec
 * ratio c/w:     0.997 speedup
 SCF:
 * wall-time:     0 d,  0 h,  0 min,  0.191 sec
 *  cpu-time:     0 d,  0 h,  0 min,  0.191 sec
 * ratio c/w:     1.000 speedup
 ANC optimizer:
 * wall-time:     0 d,  0 h,  0 min,  8.346 sec
 *  cpu-time:     0 d,  0 h,  0 min,  8.341 sec
 * ratio c/w:     0.999 speedup

