25
 energy: -42.103592990815 gnorm: 0.003493073556 xtb: 6.6.1 (8d0f1dd)
C            3.22815571734853        1.18133854549620       -0.01798034944637
N            2.27098113491212        0.10775104161798        0.03809150035489
C            2.53992528267807       -1.19155140403921        0.09218283373644
N            1.39322764318824       -1.89930268407877        0.15446352950705
C            0.34911881674940       -1.00886291713267        0.13960599181480
C            0.90659034279558        0.26161648610100        0.06719105493438
C            0.09751714496148        1.46114835716682        0.01105145035560
O            0.51621918868405        2.59338048587450       -0.06538631821964
N           -1.26539940812102        1.15187196916103        0.05352435910395
C           -2.20185247805581        2.27129063963436       -0.00279987669839
C           -1.86106301129047       -0.07806024964044        0.11926235516955
O           -3.04504263248584       -0.24875355102866        0.13349868103500
N           -0.98398624082089       -1.24282028052885        0.17628749400559
C           -1.55690531446768       -2.45276853925446        0.24926136603552
H            3.75905220268733        1.26357584451777        0.93130933530537
H            3.95204172565603        1.00078076481767       -0.81143656281753
H            2.69746236571274        2.11429543233811       -0.20671250264149
H            3.52168685587087       -1.62327412867651        0.08417136104941
H           -1.62372244499177        3.19180071569413       -0.01886608329246
H           -2.81417805346240        2.19582939911142       -0.90032652055661
H           -2.85553379150723        2.24827369696086        0.86743838514806
H           -0.95917768767560       -3.34338966426590        0.27208352798179
H           -1.60409987823217       -4.73940403837166       -1.79175260924784
H           -2.63049192524287       -2.48967928812635        0.26375713693435
H            1.32990595920937       -2.90684809174838        0.19325207834862
