25
 energy: -45.000724013874 gnorm: 6.640518959005 xtb: 6.6.1 (8d0f1dd)
C            3.21786164340000        1.13591514650000        0.01837059260000
N            2.27034809790000        0.05199982890000        0.00038279530000
C            2.54167221030000       -1.23971668410000       -0.00834188300000
N            1.39367826450000       -1.95088267900000       -0.00850347120000
C            0.35269634020000       -1.06748964300000        0.00059917290000
C            0.90759959010000        0.20069750900000        0.00663590170000
C            0.07590235260000        1.39864294500000       -0.00284827040000
O            0.48715076820000        2.53168346660000       -0.01725767220000
N           -1.27221500230000        1.06666939660000        0.00165480230000
C           -2.23229981500000        2.16656245330000       -0.00245172030000
C           -1.84872931540000       -0.19179276200000        0.00496135950000
O           -3.03273030250000       -0.36103538130000        0.00858583760000
N           -0.96599111670000       -1.30060631840000        0.00174701630000
C           -1.52030655580000       -2.64076660390000       -0.00239033190000
H            3.71480285180000        1.18589984860000        0.98803183970000
H            3.97079415090000        0.99383197990000       -0.75543416370000
H            2.68321036910000        2.07051068580000       -0.15067179540000
H            3.52469367910000       -1.66989040330000       -0.01523639120000
H           -1.67672429040000        3.10039111610000        0.00486339690000
H           -2.85755792270000        2.10547813320000       -0.89185337000000
H           -2.87119733260000        2.09858159720000        0.87661144540000
H           -1.20589108080000       -3.18768007210000        0.88663215920000
H           -1.21982032550000       -3.17678505510000       -0.90288069810000
H           -2.60531402170000       -2.54255916880000        0.00649952960000
H            1.32879827740000       -2.95942079410000       -0.01653446370000
25
 energy: -55.329505480927 gnorm: 14.032653524590 xtb: 6.6.1 (8d0f1dd)
C            3.22426518670891        1.13677696804384        0.01928503292723
N            2.34188486903283        0.40717745464679       -0.02766063760005
C            2.54192982724059       -1.22834446880755       -0.00843495262825
N            1.39389578183419       -1.94951446503953       -0.00850504861355
C            0.35378564999740       -1.06723596012484        0.00058763093481
C            0.90860355034160        0.20528304379579        0.00648801536825
C            0.07549092569297        1.39833864327290       -0.00280441529946
O            0.48707595853290        2.53179496171795       -0.01726343239414
N           -1.27236531608353        1.06664886872960        0.00166554380710
C           -2.23227559960266        2.16652999379828       -0.00244443187590
C           -1.84860557949218       -0.19184829689789        0.00496069770182
O           -3.03280646484497       -0.36104562148463        0.00858532288349
N           -0.96599342168581       -1.30062017662111        0.00175435049804
C           -1.52029854773156       -2.64074994118609       -0.00239690364322
H            3.71479223103683        1.18608472375636        0.98828290630941
H            3.97085167514629        0.99397927293815       -0.75569413660803
H            2.60342254211681        1.69677795752753       -0.12335342394530
H            3.52438308446826       -1.66987925798205       -0.01522323160372
H           -1.67672902379611        3.10039278630573        0.00487223378982
H           -2.85757649218142        2.10547003510734       -0.89185143055958
H           -2.87121619529989        2.09856859824737        0.87662171056884
H           -1.20587672814288       -3.18768802044594        0.88662267566527
H           -1.21980564157183       -3.17678824782675       -0.90288818588799
H           -2.60530673427463       -2.54257234158240        0.00649241265943
H            1.32890597665791       -2.95929796828884       -0.01652668455432
25
 energy: -72.613871369294 gnorm: 18.655728937933 xtb: 6.6.1 (8d0f1dd)
C            3.24148118021054        1.13836439320484        0.02166134788203
N            2.40643250690818        0.76342083700501       -0.05638680023908
C            2.54214214521563       -1.21996037509973       -0.00846141393321
N            1.39460081676083       -1.94794865323475       -0.00852534555609
C            0.35501687626469       -1.06681953996303        0.00057683508774
C            0.90995425857334        0.20970307229814        0.00634770189785
C            0.07490848325074        1.39789219308952       -0.00276393285149
O            0.48712632077494        2.53194384507548       -0.01726507419360
N           -1.27257535263754        1.06671865505637        0.00167598722972
C           -2.23227564651766        2.16648913581634       -0.00243420521207
C           -1.84845919761869       -0.19193112227286        0.00495929337669
O           -3.03290147192465       -0.36106213643723        0.00858469854764
N           -0.96606430963979       -1.30047688741355        0.00175786674804
C           -1.52025335819467       -2.64071872381594       -0.00240448031886
H            3.71528471717383        1.18647378545690        0.98883215032526
H            3.97136663224968        0.99424909569186       -0.75609009416458
H            2.51801133812970        1.32360234819709       -0.09697328712860
H            3.52411800695914       -1.66981341936000       -0.01524673660021
H           -1.67673901312749        3.10038811021728        0.00488545655327
H           -2.85760097930852        2.10546006175241       -0.89184554585442
H           -2.87124062660455        2.09855137012384        0.87663446043216
H           -1.20585627315419       -3.18770312823628        0.88661286894955
H           -1.21978479995130       -3.17679577799958       -0.90290320763640
H           -2.60529313297632       -2.54258322706013        0.00648277061465
H            1.32903239328413       -2.95920537049203       -0.01653969605597
25
 energy: -73.645736251559 gnorm: 59.797510796149 xtb: 6.6.1 (8d0f1dd)
C            3.29295612594055        1.14950096500695        0.02816123561678
N            2.44390704189952        1.11652177272273       -0.08777137815528
C            2.54192527702100       -1.21545850705543       -0.00846819084387
N            1.39573286090775       -1.94706335573754       -0.00855414011531
C            0.35613510073267       -1.06643537559828        0.00055255929335
C            0.91078884642738        0.21345954922141        0.00636318626404
C            0.07426625645068        1.39736673497813       -0.00273032115843
O            0.48709383353535        2.53214875437864       -0.01728641222273
N           -1.27281781956742        1.06667126200944        0.00169032271666
C           -2.23243146024699        2.16632504797395       -0.00241500267213
C           -1.84838873477937       -0.19209316466502        0.00497738553513
O           -3.03294092403374       -0.36126550836798        0.00861395149581
N           -0.96591732429738       -1.30034213749971        0.00176730348607
C           -1.52005019064836       -2.64080542807611       -0.00238213854310
H            3.71638137022931        1.18742763346428        0.99005106778675
H            3.97258081068073        0.99496175619725       -0.75709880920440
H            2.42442617436717        0.94980031839199       -0.07245307445270
H            3.52403628264714       -1.66981281980577       -0.01529156538254
H           -1.67694372602913        3.10026835145599        0.00489607313161
H           -2.85775916581477        2.10526648797095       -0.89182393310630
H           -2.87138260846341        2.09836114833352        0.87665925436409
H           -1.20564370785922       -3.18779184050027        0.88662982243935
H           -1.21958826298755       -3.17688857540051       -0.90288390271104
H           -2.60513262034640       -2.54275016449245        0.00651287991394
H            1.32919807833450       -2.95913436330618       -0.01654455557574
25
 energy: -63.834212021506 gnorm: 18.480870414850 xtb: 6.6.1 (8d0f1dd)
C            3.31462124139085        1.15216985099647        0.03090567703473
N            2.47061611199264        1.48481533649061       -0.12425891709806
C            2.54192268792726       -1.21280752221644       -0.00848127366419
N            1.39672562765461       -1.94639340808704       -0.00837449863191
C            0.35670495227831       -1.06619322682026        0.00067702543421
C            0.91049347254655        0.21429012242942        0.00633753312183
C            0.07367308307753        1.39723457368894       -0.00293553592002
O            0.48617544929362        2.53228938691079       -0.01767493018983
N           -1.27328540805282        1.06617341293853        0.00162074986174
C           -2.23320260240194        2.16550759236909       -0.00257605551736
C           -1.84832059721428       -0.19277700053554        0.00511939797032
O           -3.03287008927221       -0.36235275795308        0.00885648935381
N           -0.96546914181339       -1.30069093745429        0.00200383625855
C           -1.51916885727233       -2.64136537346962       -0.00191942793786
H            3.71665241260573        1.18893594842541        0.99027449741037
H            3.97290239159170        0.99624292100944       -0.75794363897079
H            2.37365899038199        0.57864873460476       -0.03994983625599
H            3.52450511165002       -1.66867382273732       -0.01528630009708
H           -1.67804127582984        3.09964838337219        0.00456679165294
H           -2.85857655644986        2.10411283149804       -0.89193987074516
H           -2.87208410686066        2.09745045441137        0.87654952546122
H           -1.20451641341066       -3.18812794786561        0.88714854652150
H           -1.21858019404131       -3.17747990406707       -0.90236432399064
H           -2.60428860949148       -2.54369040083600        0.00703263396465
H            1.33018383381998       -2.95872870550278       -0.01621647712701
25
 energy: -68.173065403486 gnorm: 19.697145324446 xtb: 6.6.1 (8d0f1dd)
C            3.40795766215669        1.13757066228513        0.04574511624138
N            2.35059528696210        1.43354069802369       -0.13590841177937
C            2.53998606221502       -1.23140530892104       -0.00830228983294
N            1.39947358417487       -1.94803067572291       -0.00812127431250
C            0.35579726893356       -1.06511401376365        0.00089669166413
C            0.90595573744694        0.20578799714506        0.00674652059539
C            0.07383278894823        1.39692316827441       -0.00334963185002
O            0.48411753416147        2.53276600755911       -0.01817157982240
N           -1.27435326216086        1.06530888385485        0.00151258713937
C           -2.23445520066331        2.16410670712619       -0.00280505482279
C           -1.84792634973795       -0.19397599121641        0.00534976236954
O           -3.03293241971405       -0.36418122664419        0.00926205042923
N           -0.96486929866159       -1.30118642681575        0.00235256871404
C           -1.51770698220219       -2.64224728646137       -0.00118328049178
H            3.72021349553668        1.19058603183316        0.99343634853695
H            3.97712326953676        0.99731743926754       -0.76092524153256
H            2.39579725481492        0.68156119402227       -0.04693432737837
H            3.52573946580628       -1.66693074321576       -0.01535081712543
H           -1.67989950964618        3.09860980539097        0.00406271835426
H           -2.85999017646417        2.10216846482616       -0.89211627077681
H           -2.87330693527846        2.09588670781930        0.87641792045409
H           -1.20259648139136       -3.18871954899995        0.88796831139337
H           -1.21685972464608       -3.17847166544358       -0.90153902673977
H           -2.60287537782297       -2.54529456889351        0.00786649320229
H            1.33161382179565       -2.95833776972971       -0.01573826472932
25
 energy: -73.487082222892 gnorm: 70.066384538507 xtb: 6.6.1 (8d0f1dd)
C            3.50818584169738        1.11675944858607        0.06278473929949
N            2.25526006048940        1.10422825209015       -0.11552577762694
C            2.53747725508325       -1.22003403955703       -0.00836273858239
N            1.40207436189811       -1.94656255580557       -0.00823956259233
C            0.35690871946744       -1.06321872266031        0.00083595028145
C            0.90458298482763        0.20909884915466        0.00686638391993
C            0.07357768009863        1.39631697707203       -0.00322629621010
O            0.48343959319518        2.53303248429882       -0.01786373800371
N           -1.27476028192605        1.06532558650179        0.00157779902679
C           -2.23414183630938        2.16433619703214       -0.00268823590306
C           -1.84754673649609       -0.19384985415952        0.00528993803827
O           -3.03320931006292       -0.36382561178767        0.00917583262054
N           -0.96484349892941       -1.30100751311463        0.00223899528309
C           -1.51800651809260       -2.64196834887446       -0.00140195928666
H            3.72465923048518        1.18964876536895        0.99853445461823
H            3.98269366513407        0.99598223510432       -0.76410477222264
H            2.38345590292533        1.01450685620538       -0.08572315414641
H            3.52503440460620       -1.66760528548341       -0.01538906599351
H           -1.67955256679421        3.09882013774230        0.00424780566894
H           -2.85977634951582        2.10254804553764       -0.89204983307762
H           -2.87313889312771        2.09614268152814        0.87653280533358
H           -1.20293663112726       -3.18864786520389        0.88771422840677
H           -1.21715762841371       -3.17827024061277       -0.90178693737221
H           -2.60316417966360       -2.54501226736325        0.00763046545996
H            1.33131624465097       -2.95850566999988       -0.01589570903946
25
 energy: -75.331746231160 gnorm: 17.243937447830 xtb: 6.6.1 (8d0f1dd)
C            3.50246028875623        1.13002435507381        0.06012368089441
N            2.09051051922111        1.12761191357270       -0.14460558497166
C            2.53795801400555       -1.22254081432520       -0.00830695427012
N            1.40587696819901       -1.94545273940938       -0.00757750392104
C            0.35821230658515       -1.06264906846762        0.00131399008683
C            0.90260713273926        0.20870930800689        0.00677208400471
C            0.07097579782099        1.39587582652827       -0.00403540169365
O            0.47931961878579        2.53356202384660       -0.01933774108911
N           -1.27666086198435        1.06331969936435        0.00132814793243
C           -2.23754396597518        2.16074607178283       -0.00327133083369
C           -1.84732896483521       -0.19687035677864        0.00587613672237
O           -3.03284013584463       -0.36860083469779        0.01018175063269
N           -0.96303204265089       -1.30254713085868        0.00317916991119
C           -1.51412206417818       -2.64442177821612        0.00043286011572
H            3.72468583665670        1.19587407998149        0.99952991638608
H            3.98315994678360        1.00132910324117       -0.76788284676101
H            2.54727016968300        0.99839157240382       -0.05885544979254
H            3.52756611960012       -1.66273326945098       -0.01547152032045
H           -1.68438418258768        3.09609398438830        0.00300038911460
H           -2.86336794105182        2.09754009223978       -0.89244341221466
H           -2.87624467930001        2.09207693388830        0.87616442453507
H           -1.19799293536649       -3.19019162190335        0.88976159902227
H           -1.21271414343550       -3.18080862363305       -0.89974187204860
H           -2.59945441074060       -2.54915105128224        0.00970598204034
H            1.33551512321403       -2.95694913369522       -0.01466889558216
25
 energy: -76.087242818031 gnorm: 15.788123488633 xtb: 6.6.1 (8d0f1dd)
C            3.53790555523039        1.11100540573256        0.06787674560925
N            2.18090863127000        1.24298406472282       -0.14275676100571
C            2.53732263433621       -1.20988818300288       -0.00839271405186
N            1.40678833939023       -1.94378554733062       -0.00795388481606
C            0.35984592549115       -1.06160228332838        0.00102234999454
C            0.90557618703624        0.21854792538507        0.00646261574691
C            0.06879917472964        1.39530924136244       -0.00346150487948
O            0.48063409571060        2.53346590849114       -0.01854506885715
N           -1.27640185960699        1.06468238017834        0.00150003988403
C           -2.23606238764598        2.16231370942134       -0.00294221772128
C           -1.84720899037456       -0.19561291950479        0.00558674148141
O           -3.03316200141625       -0.36645241945723        0.00970037844020
N           -0.96371392790712       -1.30146318791111        0.00274862090092
C           -1.51579783961709       -2.64320031711853       -0.00048378429266
H            3.72713629727458        1.19338295785303        1.00459306396642
H            3.98680023934181        0.99845413822423       -0.77066983101566
H            2.41652176332732        0.86833031517023       -0.06674787649991
H            3.52578601967513       -1.66522753433043       -0.01549086113178
H           -1.68216959610324        3.09732681022178        0.00366421877162
H           -2.86178208910162        2.09985398648345       -0.89221300815636
H           -2.87489291639646        2.09390174104983        0.87640060190812
H           -1.20022688691454       -3.18953543619494        0.88872010066507
H           -1.21470994827752       -3.17963471493965       -0.90078312817826
H           -2.60113886344365       -2.54726511597890        0.00866604100965
H            1.33367395809171       -2.95765238359877       -0.01532925987198
25
 energy: -77.871675183594 gnorm: 6.501909158736 xtb: 6.6.1 (8d0f1dd)
C            3.51841947150229        1.12517869125864        0.06459238694961
N            2.18722630902012        1.17177687427725       -0.13633671046726
C            2.53471884684988       -1.22722043011280       -0.00808309821330
N            1.40994708807601       -1.94549774537919       -0.00796651970314
C            0.36019192479915       -1.06069557133248        0.00099386593298
C            0.90354268836880        0.21924915975244        0.00695674395110
C            0.06560637078609        1.39414429922823       -0.00338283361718
O            0.48069109513587        2.53339685442029       -0.01840302067262
N           -1.27696327427243        1.06573261122234        0.00148274149292
C           -2.23569340577601        2.16269137867297       -0.00298552205240
C           -1.84713091945724       -0.19534200501083        0.00550465380803
O           -3.03331831746772       -0.36583452644461        0.00960068533199
N           -0.96380007185253       -1.30052581849850        0.00269154715062
C           -1.51615433715180       -2.64273242217386       -0.00055219393226
H            3.73210910583836        1.19384902385886        1.01493616951455
H            3.99428414117215        0.99740567889538       -0.77925115427915
H            2.42376305427310        0.94042115690006       -0.07179760243011
H            3.52548236183518       -1.66658961168894       -0.01548531672180
H           -1.68152524594495        3.09768514305606        0.00363520683768
H           -2.86141800214061        2.10046243935211       -0.89229836505163
H           -2.87459673366133        2.09449566438837        0.87634403029868
H           -1.20084301868700       -3.18930188831385        0.88864048288184
H           -1.21526375492081       -3.17937534861393       -0.90085088367145
H           -2.60163210791213       -2.54671583921709        0.00855550630142
H            1.33278824568755       -2.95841922689691       -0.01536918173910
25
 energy: -77.951200947226 gnorm: 6.472708335892 xtb: 6.6.1 (8d0f1dd)
C            3.52290333884192        1.13212736076432        0.06630597771162
N            2.19889506091592        1.14203904610625       -0.12715539834710
C            2.53144816860706       -1.23794513799182       -0.00793606189485
N            1.41476181290327       -1.94634874322913       -0.00828706087527
C            0.36234632503963       -1.05838963337283        0.00078525468700
C            0.90215340264405        0.22546236264474        0.00769460554294
C            0.06083317256126        1.39300433893083       -0.00299969555914
O            0.48042282495119        2.53288783442804       -0.01775470859366
N           -1.27828349807160        1.06699819316404        0.00164864524659
C           -2.23529544427511        2.16321050296427       -0.00269449182393
C           -1.84701746564211       -0.19501294307502        0.00532884778108
O           -3.03354843831901       -0.36506432776617        0.00934601496770
N           -0.96360428765139       -1.29916352943650        0.00238020636864
C           -1.51655751266499       -2.64204155998911       -0.00113524818182
H            3.73997209789777        1.19419816018582        1.02986476103288
H            4.00540870702744        0.99615942111174       -0.79049705040008
H            2.39497221120836        0.96348484297423       -0.08511966235034
H            3.52471541820892       -1.66857881904448       -0.01566781100464
H           -1.68069668561273        3.09813341208225        0.00412047329264
H           -2.86096688068133        2.10140654512871       -0.89209763810512
H           -2.87428028662461        2.09510638897195        0.87659504644782
H           -1.20164168219641       -3.18915997975413        0.88795131291602
H           -1.21593757873464       -3.17887937113465       -0.90151893895713
H           -2.60223956044069       -2.54600324061194        0.00790858264365
H            1.33166829420784       -2.95939258245139       -0.01589434464551
25
 energy: -78.066796639892 gnorm: 1.063913493910 xtb: 6.6.1 (8d0f1dd)
C            3.53780764260268        1.12920723930324        0.06927095053023
N            2.17721150815026        1.15277544791987       -0.12543136302223
C            2.53143497173989       -1.23351677029208       -0.00808370924316
N            1.41590038681693       -1.94561086676770       -0.00846947822691
C            0.36343632232525       -1.05754007366833        0.00069932163619
C            0.90216739882851        0.22819337472206        0.00787227923585
C            0.05977639137801        1.39305822542384       -0.00284484492344
O            0.47961972647778        2.53282234897104       -0.01749193303597
N           -1.27891601831538        1.06679084837306        0.00177070014297
C           -2.23573791673188        2.16285658568258       -0.00246667454642
C           -1.84699083597105       -0.19536690939143        0.00532979718065
O           -3.03352426620967       -0.36559291705396        0.00934431176514
N           -0.96317070465260       -1.29915312213935        0.00227270252965
C           -1.51607908823871       -2.64224002480988       -0.00135824744428
H            3.74133452816201        1.19482675892839        1.03218822000573
H            4.00710901786825        0.99679998570419       -0.79196864682661
H            2.39784080038311        0.94896902901325       -0.09040831988406
H            3.52473813741935       -1.66825730343468       -0.01584154427247
H           -1.68121332323099        3.09783496568585        0.00442538047615
H           -2.86136586410388        2.10100579135545       -0.89187994720771
H           -2.87466935844781        2.09454150004218        0.87682392831873
H           -1.20111930606790       -3.18945802782001        0.88767196297680
H           -1.21542921348457       -3.17901399047752       -0.90178893704369
H           -2.60183189846140       -2.54644138995511        0.00770241046127
H            1.33210247586381       -2.95925216371494       -0.01616670168240
25
 energy: -78.075608830214 gnorm: 0.212312056366 xtb: 6.6.1 (8d0f1dd)
C            3.54652677685855        1.12996178949561        0.07160141808997
N            2.17025579488431        1.14774908106179       -0.12943116172389
C            2.53050848984084       -1.23569539045968       -0.00799126382991
N            1.41873654903965       -1.94548336325828       -0.00842359343849
C            0.36538465180751       -1.05563583572906        0.00074225209428
C            0.90169652849570        0.23328670548017        0.00841090214442
C            0.05646623649252        1.39286226892688       -0.00283330743726
O            0.47875507674024        2.53251707105146       -0.01750283630134
N           -1.28014773187039        1.06725063059603        0.00174806812634
C           -2.23592136949663        2.16290088615002       -0.00252905307482
C           -1.84697445580059       -0.19547225164839        0.00532178898151
O           -3.03359056313202       -0.36559960398674        0.00935974406817
N           -0.96263713484411       -1.29841701108046        0.00230274158894
C           -1.51590244649911       -2.64201039043427       -0.00126664895119
H            3.74607342148753        1.19564614862876        1.04048488638059
H            4.01331783867752        0.99658937911205       -0.79842113442839
H            2.38747079512617        0.94779357863155       -0.09147445430112
H            3.52432903381190       -1.66903878541494       -0.01583752965153
H           -1.68117110386122        3.09784098544113        0.00431733984936
H           -2.86146456571402        2.10102047986703       -0.89196622232262
H           -2.87477789857015        2.09461697364125        0.87677431046671
H           -1.20111389832073       -3.18942162219039        0.88776733825132
H           -1.21542352499800       -3.17903271729608       -0.90167257926782
H           -2.60182594762480       -2.54639123506543        0.00778799222414
H            1.33186096156934       -2.95959922992001       -0.01609737963736
25
 energy: -78.084146509909 gnorm: 0.546748544460 xtb: 6.6.1 (8d0f1dd)
C            3.55841602334076        1.13196188044243        0.07573398712566
N            2.15557142136967        1.13952464232118       -0.13279333990697
C            2.52942267766747       -1.24208032418323       -0.00785459026133
N            1.42484428602978       -1.94526013215566       -0.00851222910805
C            0.37002103900149       -1.05095901226046        0.00074682688893
C            0.90076062604423        0.24488193046251        0.00976703504007
C            0.04836861385293        1.39288286545199       -0.00261373379094
O            0.47641170959566        2.53185588835809       -0.01721127765047
N           -1.28326549701460        1.06829431740207        0.00180699885631
C           -2.23655774614937        2.16301890283804       -0.00244789517686
C           -1.84700146001304       -0.19580003981921        0.00526454214333
O           -3.03372402340001       -0.36574660110365        0.00932258654539
N           -0.96113089550513       -1.29661839324500        0.00222101752130
C           -1.51534551735703       -2.64146275705663       -0.00136864445232
H            3.75680355730918        1.19756447206370        1.05943274202190
H            4.02718348740520        0.99653617651553       -0.81247356372114
H            2.37096336301650        0.94212863824001       -0.09844821323037
H            3.52341635611299       -1.67085298388234       -0.01597344579070
H           -1.68116251051338        3.09779178133501        0.00440834857804
H           -2.86176847600044        2.10108510576223       -0.89195402787406
H           -2.87512978736319        2.09461914174835        0.87687183414267
H           -1.20101855581886       -3.18946273198054        0.88760914476386
H           -1.21530449066041       -3.17899608723008       -0.90176786251351
H           -2.60170956660765       -2.54633349117611        0.00766864889109
H            1.33136687975725       -2.96033464724822       -0.01626327114183
25
 energy: -78.095357151676 gnorm: 0.781520732209 xtb: 6.6.1 (8d0f1dd)
C            3.57181414363841        1.13598636583601        0.08228763353982
N            2.13137085885404        1.12630543365194       -0.13473928227395
C            2.52919574858586       -1.25544425266172       -0.00766372022585
N            1.43515514605862       -1.94505671940843       -0.00881486643032
C            0.37881573529729       -1.04175402937753        0.00072124978130
C            0.89911394108360        0.26582699559293        0.01255442197565
C            0.03280508658034        1.39374310108544       -0.00204160293313
O            0.47151679277507        2.53081878122754       -0.01642438185056
N           -1.28954515130131        1.07019746006323        0.00199302595564
C           -2.23804820416417        2.16335173954377       -0.00213015329100
C           -1.84715004852219       -0.19651222880697        0.00512822987219
O           -3.03397357805828       -0.36615180941381        0.00919611228813
N           -0.95789089176926       -1.29311749316883        0.00194913526729
C           -1.51413139854060       -2.64032323811770       -0.00179871423212
H            3.77638581919500        1.20107203931346        1.09308826717086
H            4.05180579066846        0.99705626094198       -0.83646033849367
H            2.34755674820972        0.92955469863407       -0.11480165169440
H            3.52188767698463       -1.67446855209330       -0.01633254419689
H           -1.68120411490778        3.09765421328238        0.00483368408810
H           -2.86242029767423        2.10126538488505       -0.89178316098385