25
 energy: 63.426365222542 xtb: 6.6.1 (8d0f1dd)
C            3.98869301464888        0.75673617246672        0.14065293435596
N            2.88420478641733       -0.12430998907549        0.08304627408499
C            3.00172588122569       -1.46219998344597       -0.07114035402496
N            1.76575917370151       -2.02114085628643       -0.05540745704596
C            0.78746270432813       -1.04085222192484        0.01313915456248
C            1.51541668094782        0.21936148413793        0.10267479518680
C            0.98087693069203        1.43003394818209        0.13612912992535
O            0.67705079782547        2.55871348662536        0.35933783219681
N           -3.18127687348033        1.22776863380481       -0.13822118802414
C           -3.63777800095177        2.54776581881278       -0.11916134431281
C           -3.60034591447705        0.12436442719749       -0.16461439143807
O           -3.89430149436499       -0.99400388966360       -0.19190667643013
N           -0.47545532240969       -1.13978847442533        0.03039951550158
C           -1.10861651669374       -2.43237375888856        0.03583569268570
H            3.91274809822137        1.47892196575513        0.95436405122978
H            4.86015184510667        0.13316342651438        0.36602262835588
H            4.20668186410633        1.25446899340026       -0.81518257922028
H            3.92093630671888       -1.98950824597628       -0.15133150891552
H           -2.77497540850490        3.21303903156304        0.00885572002842
H           -4.17970578586548        2.75948000586258       -1.04720739715612
H           -4.32562663764161        2.65895033757017        0.72152729584212
H           -0.73687517437542       -2.98122446926350        0.90260180061626
H           -0.90562162431539       -2.99781433461208       -0.86981888654021
H           -2.19347556532281       -2.36515715491394        0.10105539412390
H            1.59782196405180       -3.00028440890112       -0.17164028836013
