25
 energy: 0.000000000000 xtb: 6.6.1 (8d0f1dd)
C            3.23720132972391        1.16630909158653        0.08434468864950
N            2.29877796055224        0.07527476373246        0.03981602671198
C            2.58028186251803       -1.21425391179017        0.03006175752192
N            1.43813944744728       -1.93419254010258        0.00098261751768
C            0.39035684826767       -1.05887462812143       -0.00790371763344
C            0.93510047688824        0.21347817468824        0.01709077332874
C            0.09450143016486        1.40504290868848       -0.00410946993748
O            0.49712746915594        2.54126690785742       -0.00342325656480
N           -1.25076628431515        1.06271869620815       -0.03085477937476
C           -2.21907191394203        2.15522079838987       -0.05001256521996
C           -1.81739470187490       -0.20012724136556       -0.04692818139228
O           -2.99983858926755       -0.37846413507442       -0.07008877579474
N           -0.92618577614240       -1.30210203518959       -0.03682761236648
C           -1.46982251276835       -2.64643077634382       -0.06029819901142
H            3.71247229913541        1.21471443890471        1.06488839270555
H            4.00791460421487        1.03430799217987       -0.67357688121503
H            2.69909982127087        2.09770098766290       -0.09130154035862
H            3.56654087521359       -1.63682977417947        0.04233139674524
H           -1.67107945562430        3.09322822573871       -0.02552706696334
H           -2.82428927394145        2.09428605349656       -0.95318074103337
H           -2.87644002486466        2.07745706351925        0.81450059976605
H           -1.17061985538665       -3.19584861009707        0.83242224714061
H           -1.14560246782873       -3.17511580834413       -0.95688266944647
H           -2.55549768731684       -2.55659960601237       -0.07459039105944
H            1.38130842369251       -2.94313824728853       -0.01389874052104
25
 energy: -6.045456984680 xtb: 6.6.1 (8d0f1dd)
C            3.23998507950731        1.17285667392517        0.08686195493933
N            2.31155448192951        0.09577194069684        0.03401894102867
C            2.63167641722224       -1.24664336324498        0.03284446593420
N            1.43946550646378       -1.94468601900306        0.00175900882825
C            0.40958837684832       -1.06857077091086       -0.00854502348424
C            0.92488063032824        0.21868174826086        0.01316439751728
C            0.11499840857992        1.38135789362757       -0.00605076524309
O            0.48936485002967        2.55804403641500       -0.00535747574340
N           -1.26945778162613        1.04964317663808       -0.03155517163890
C           -2.22296499591728        2.14887995050711       -0.04921929865069
C           -1.81669814770328       -0.19644190890827       -0.04740854969371
O           -3.01559296609070       -0.38401098109670       -0.07007886439260
N           -0.93453053816891       -1.30102371451177       -0.03736976090484
C           -1.47747658646170       -2.63959356122851       -0.06073252145813
H            3.71444093049456        1.21668773596529        1.07102227935801
H            4.00868518707026        1.03480199586825       -0.67556424122478
H            2.69510186114259        2.09777023877931       -0.09131859861151
H            3.63748456197128       -1.62924859054506        0.04544827074486
H           -1.66617790763454        3.08323179381341       -0.02509364726643
H           -2.83011254381275        2.09571344593015       -0.95274059342076
H           -2.88034233979612        2.07868287611376        0.81697691994954
H           -1.17700963011697       -3.19282227338801        0.83177577200666
H           -1.15165437398585       -3.17253052033370       -0.95687128181170
H           -2.56347239165650       -2.54914979761056       -0.07528263925608
H            1.37016896271647       -2.94946311738797       -0.01059555126908
25
 energy: -4.806090301294 xtb: 6.6.1 (8d0f1dd)
C            3.23923719207025        1.17169792517084        0.08687123227339
N            2.31987030229625        0.08868851490582        0.03210239660727
C            2.66358195828480       -1.25518624556966        0.03312990054125
N            1.45705420244936       -1.94966249603376        0.00258027703498
C            0.41936517160435       -1.07549331633887       -0.00868909499649
C            0.93055657965523        0.21176512588635        0.01184629334751
C            0.11461471541609        1.37528735654436       -0.00634249335056
O            0.48379013331844        2.55403932518567       -0.00510671993386
N           -1.27198881146192        1.04782325037084       -0.03157922884335
C           -2.22656411698666        2.14816442332249       -0.04916468941540
C           -1.81926820245890       -0.19739272938682       -0.04767022454849
O           -3.01857186218140       -0.38497140982577       -0.07031464540726
N           -0.93165915353809       -1.30142949663222       -0.03745561114192
C           -1.48317862929418       -2.63733192724600       -0.06089900659937
H            3.71133714596866        1.21414842768153        1.07222849871447
H            4.00587706102869        1.03351423310401       -0.67729586203202
H            2.69114996983246        2.09487423275695       -0.09117005601884
H            3.69880904036400       -1.61205528559871        0.04743834787210
H           -1.67018371786666        3.08259273628908       -0.02498353904618
H           -2.83484583535633        2.09740420665115       -0.95241943672841
H           -2.88505589333310        2.08043706023277        0.81673497161950
H           -1.18563900247078       -3.19177506443788        0.83151416071758
H           -1.15968725686434       -3.17143209844700       -0.95688477605408
H           -2.56971396933704       -2.54373457201898       -0.07571928730921
H            1.36376618083297       -2.95291200768713       -0.00872391728239
25
 energy: -2.576009158572 xtb: 6.6.1 (8d0f1dd)
C            3.23631322042162        1.17067365410711        0.08652003795938
N            2.32581297227797        0.08134169030023        0.02894638554764
C            2.69416459018444       -1.26169970631944        0.03328022638652
N            1.47389947639043       -1.95418540900478        0.00292690655372
C            0.42815944777340       -1.08285659875694       -0.00877751808788
C            0.93455651683371        0.20466492737577        0.01136187245548
C            0.11365249703510        1.36823426445381       -0.00591646719266
O            0.47866654113784        2.54804739619742       -0.00413192655749
N           -1.27450719970765        1.04580195366618       -0.03143880353111
C           -2.22921608546564        2.14813274568571       -0.04942906289632
C           -1.82132515383103       -0.19860194682545       -0.04812800030653
O           -3.02072001208264       -0.38714177703160       -0.07086006412081
N           -0.92879683410304       -1.30301670559322       -0.03724690693136
C           -1.48851631661559       -2.63607309174794       -0.06077388746411
H            3.70720942438890        1.21323565150131        1.07229322878977
H            4.00091350762924        1.03352504899879       -0.67917688857810
H            2.68579180406849        2.09264207770454       -0.09061122077030
H            3.76072417905472       -1.58450943124387        0.05010596478067
H           -1.67319670938086        3.08263133913798       -0.02476763220810
H           -2.83812846851844        2.10055080106256       -0.95260012321953
H           -2.88948657792408        2.08355177877600        0.81551970861148
H           -1.19406018223153       -3.19195463427561        0.83162338429495
H           -1.16825615755999       -3.17141993476409       -0.95704945993526
H           -2.57520804376866       -2.53690215837123       -0.07534307297908
H            1.35601312262080       -2.95466653952579       -0.00980403578746
25
 energy: 0.743268131100 xtb: 6.6.1 (8d0f1dd)
C            3.23454344658646        1.16964387444627        0.08634239171691
N            2.33084589815660        0.07511376366889        0.02538975674550
C            2.72551778151287       -1.26638847423997        0.03365062673007
N            1.49062346062467       -1.95675503851835        0.00351850730237
C            0.43597958754986       -1.08883716904617       -0.00878819539892
C            0.93683127315228        0.20012343015850        0.01104158235976
C            0.11105171623538        1.36214373325555       -0.00639493039331
O            0.47104625516361        2.54307083600371       -0.00444067747295
N           -1.27861193885868        1.04367645397983       -0.03163770573066
C           -2.23255928637756        2.14784263750145       -0.04921551216920
C           -1.82548736640070       -0.19956332051223       -0.04841770922450
O           -3.02531336570626       -0.38828867609630       -0.07118687765166
N           -0.92765491550407       -1.30361712864904       -0.03738337388577
C           -1.49540760989124       -2.63424110044575       -0.06079731817989
H            3.70340858298143        1.21129055560294        1.07292226508996
H            3.99865349478352        1.03660006152065       -0.67989810540394
H            2.68330493536345        2.09109326424070       -0.09007719725044
H            3.82436839201830       -1.55719491804570        0.05227106372860
H           -1.67565640774857        3.08178792612429       -0.02441810043540
H           -2.84199388828952        2.10220105896707       -0.95237089995525
H           -2.89300828899530        2.08489622962526        0.81594401835593
H           -1.20356514479771       -3.19131199627770        0.83150068330846
H           -1.17773410299566       -3.17111293816803       -0.95690254797971
H           -2.58253768008675       -2.53211067918455       -0.07533385630750
H            1.34922046658022       -2.95391730320329       -0.01232859679471
25
 energy: 4.883489118265 xtb: 6.6.1 (8d0f1dd)
C            3.23147658401625        1.16688434197339        0.08622605965239
N            2.33127244714239        0.06933088474164        0.02529115877818
C            2.74938257398768       -1.27183383804899        0.03747765491806
N            1.49970769663073       -1.95925756210984        0.00534413184817
C            0.43706766027059       -1.09261413249467       -0.00826901154484
C            0.93622962276972        0.19610961795881        0.01095571406155
C            0.10899422195669        1.35866557236074       -0.00582858188034
O            0.46576827177492        2.53953553476298       -0.00350299780604
N           -1.28262281432620        1.04273826879328       -0.03156198725731
C           -2.23604939432458        2.14856313463415       -0.04920284051332
C           -1.83032542924697       -0.19967374481636       -0.04897459685134
O           -3.03028114383410       -0.38889127327769       -0.07268166235456
N           -0.92950038045172       -1.30377221269911       -0.03807171588869
C           -1.50172421954642       -2.63268101170233       -0.06112374910211
H            3.70043242016946        1.20815095897025        1.07256455270769
H            3.99510810125234        1.03228492897964       -0.67983643688262
H            2.68022365730767        2.08826079442689       -0.09022909730160
H            3.88338243345574       -1.54222720726094        0.05253826095779
H           -1.67921659752504        3.08243379068951       -0.02395938120329
H           -2.84569043669227        2.10480400355884       -0.95239831461239
H           -2.89736836396878        2.08704366066786        0.81546265637073
H           -1.21164230552461       -3.19047205093338        0.83126516364892
H           -1.18533997549164       -3.17057553598906       -0.95703466976101
H           -2.58888596997393       -2.52703512794322       -0.07586590509414
H            1.33883233687672       -2.95337637723492       -0.01693615741773
25
 energy: 9.390940056090 xtb: 6.6.1 (8d0f1dd)
C            3.22526689563478        1.16434021113868        0.08768803618113
N            2.32541655338237        0.06678255807292        0.03065404881394
C            2.74793846891531       -1.27383076270997        0.05724739707506
N            1.49287748601607       -1.96012694130690        0.00334546053626
C            0.43056030811747       -1.09135015781096       -0.00822927084774
C            0.93038697519023        0.19677598193445        0.01190380511586
C            0.10502412731682        1.36159784613969       -0.00371106415789
O            0.45996385270015        2.54191441907966       -0.00124591301617
N           -1.28757698001529        1.04406520873638       -0.03085216650043
C           -2.24011349198717        2.15134514481960       -0.05092355791703
C           -1.83534890748147       -0.19821979693168       -0.04811700372551
O           -3.03452566535397       -0.38913519094380       -0.07438336493350
N           -0.93475639285642       -1.30262055731204       -0.03792543920959
C           -1.50760898055504       -2.63062010670831       -0.06035454858624
H            3.69433140619356        1.20842654662821        1.07360630107854
H            3.98869586799023        1.02498149777759       -0.67799819083614
H            2.67242213075241        2.08428458911631       -0.09183730860317
H            3.93385437831088       -1.54253341162439        0.05009789135086
H           -1.68297337334900        3.08512428373936       -0.02599066746847
H           -2.84954116261991        2.10958493700669       -0.95420973966111
H           -2.90299759113991        2.09327054336947        0.81253087537688
H           -1.21726726410649       -3.18971427111093        0.83134939905409
H           -1.19359759780792       -3.16863706980139       -0.95716716267004
H           -2.59439599215252       -2.51994891929067       -0.07311062432049
H            1.32482709510156       -2.95310471979472       -0.02697284435768
25
 energy: 15.905070080224 xtb: 6.6.1 (8d0f1dd)
C            3.22104664315288        1.16093069980872        0.08763773633628
N            2.31998777931841        0.06440268757464        0.03398660582544
C            2.74292594308275       -1.27430924405873        0.09540142994459
N            1.48534102730687       -1.95869716854149        0.00120811439592
C            0.42338421619260       -1.08886890681736       -0.01212471607626
C            0.92496769507519        0.19837124317404        0.00741494653477
C            0.10069657640280        1.36576226318542       -0.00572684969984
O            0.45383238086444        2.54571986381634       -0.00229075594384
N           -1.29251725854820        1.04631283824077       -0.03045444650168
C           -2.24537850398200        2.15405017497913       -0.05103066565456
C           -1.84090814124762       -0.19649746825431       -0.04704733509826
O           -3.04003317956951       -0.38665329083463       -0.07598060502127
N           -0.94063126700261       -1.30080224901309       -0.03856909191761
C           -1.51421989651436       -2.62809150265100       -0.06001242234662
H            3.68678101448618        1.20587534827323        1.07432144365393
H            3.98730555860434        1.01695281023240       -0.67476352867359
H            2.66851644492274        2.08046009827884       -0.09507870646687
H            3.99594333698361       -1.55122685985619        0.04347783996992
H           -1.68841183244548        3.08812542716756       -0.02642248973624
H           -2.85660754240348        2.11474558983273       -0.95324349657069
H           -2.90863699025254        2.09826231305661        0.81213537201173
H           -1.22483830305755       -3.18984951394871        0.83060113689818
H           -1.20134180850517       -3.16495189892157       -0.95782930568906
H           -2.60065263797769       -2.51357957644782       -0.07204732847366
H            1.31339423749238       -2.95004528011919       -0.02097652745889
25
 energy: 45.179222223973 xtb: 6.6.1 (8d0f1dd)
C            3.20629239424857        1.14703004142818        0.08859470047953
N            2.28833268630770        0.04428271019521        0.05543537246166
C            2.62564633880707       -1.25421641856351        0.16468016787979
N            1.43374793218485       -1.94328174965255        0.00798062401979
C            0.37973754645746       -1.07248210261822       -0.02907636770138
C            0.90403127081617        0.20365557508248       -0.01189317131420
C            0.08218729814310        1.38070630929128       -0.01968221686087
O            0.44003615704825        2.54647778447390       -0.00520276810444
N           -1.29757209256618        1.05489803921159       -0.03161202649921
C           -2.25213545001384        2.15910078874810       -0.04876138973657
C           -1.85765098823627       -0.19617937169310       -0.05005724667649
O           -3.05498694214008       -0.37254585164651       -0.07141778313695
N           -0.97077224779028       -1.29185292553816       -0.04643160309275
C           -1.52841471638678       -2.62583129753599       -0.06310776867459
H            3.68237670793070        1.19107644674814        1.06666370170475
H            3.97009358218456        1.00169076369016       -0.67585650404397
H            2.66228145628574        2.07426492916787       -0.08996792317127
H            4.41237468671599       -1.59786473298544        0.00876634686826
H           -1.69424515140559        3.09244552819759       -0.02345478957265
H           -2.86134508659719        2.11690547276159       -0.95157165174780
H           -2.91403144867277        2.09867228261437        0.81433387564817
H           -1.23588542379336       -3.18260441149966        0.82962935402424
H           -1.20922784845284       -3.16459886072958       -0.95740666730178
H           -2.61373602692837       -2.51240645370218       -0.07714716516207
H            1.29031976395170       -2.94040739940450       -0.00998799727327
25
 energy: 46.109474309016 xtb: 6.6.1 (8d0f1dd)
C            3.19921435499411        1.14148327388264        0.08811166895932
N            2.27281595269798        0.04077307763399        0.05620711588132
C            2.59713160190733       -1.25161722905128        0.13939313319828
N            1.41221726233953       -1.93952590841506        0.01276659442653
C            0.36229246024203       -1.06625924942571       -0.02495715018206
C            0.89255033949252        0.20595850961608       -0.00876832643517
C            0.07099063490621        1.38617463149108       -0.01784623233525
O            0.43199916457729        2.54548427387115       -0.00460591694752
N           -1.30229868297189        1.05941654583312       -0.03289331665484
C           -2.25754030875147        2.16237449087355       -0.04964515569199
C           -1.86626137233680       -0.19592376775139       -0.04963003369040
O           -3.06334913891415       -0.36656185621268       -0.07089331691768
N           -0.98346137071256       -1.28786376521695       -0.04565253007599
C           -1.53743672218087       -2.62327488031167       -0.06248065154231
H            3.67453925497823        1.18514240469454        1.06609538450253
H            3.96685701485018        0.99309912067254       -0.67102492180924
H            2.66014054353840        2.07136231226832       -0.09318048456291
H            4.55275538858628       -1.61450839675936        0.01685480971537
H           -1.69957083621450        3.09584293632909       -0.02472319419307
H           -2.86731113325730        2.11773480637281       -0.95177181162099
H           -2.91910379432006        2.10006141320083        0.81358547996666
H           -1.24426876853406       -3.18159221983391        0.82923934010960
H           -1.21863011663230       -3.16145047534017       -0.95735412945353
H           -2.62185044939878       -2.50574540565666       -0.07556048341107
H            1.27056497832320       -2.93754036897909       -0.01264882658993
25
 energy: 46.563566962895 xtb: 6.6.1 (8d0f1dd)
C            3.19381725308362        1.13586142393465        0.08737012075198
N            2.25970724477372        0.03989852607069        0.05698346874201
C            2.57598558543804       -1.25103810922607        0.13615797280953
N            1.39399557294953       -1.93756384911393        0.01523260746582
C            0.34862480198541       -1.06132383387763       -0.02600645575133
C            0.88160152152421        0.20941779916353       -0.00898473792093
C            0.06298985395947        1.39151716683763       -0.01920646435436
O            0.42509548732477        2.54923318753895       -0.00555348414065
N           -1.30824134093242        1.06383590197127       -0.03465293207332
C           -2.26281409077165        2.16664221608645       -0.04995913957745
C           -1.87428552321479       -0.19283172964648       -0.05054420948171
O           -3.07157776746460       -0.36052519190980       -0.06910508820304
N           -0.99419848431947       -1.28445464930267       -0.04778639513067
C           -1.54523875781591       -2.62077959643986       -0.06250272465990
H            3.67170561801994        1.17286750956743        1.06400660316657
H            3.96124918814504        0.98900729129372       -0.67196283064553
H            2.66024290890811        2.06952891025719       -0.09072236927509
H            4.66040759684445       -1.62297474340456        0.01355976941022
H           -1.70396407233651        3.09985181836320       -0.02474935535484
H           -2.87257224848135        2.12128326045273       -0.95213151541204
H           -2.92473615205962        2.10321647993447        0.81302178956269
H           -1.25082943154968       -3.17928295049367        0.82907301400950
H           -1.22740998429766       -3.16054095323851       -0.95705939456381
H           -2.62884928277709       -2.49978402712845       -0.07400706347007
H            1.24949538137564       -2.93562838724688       -0.01213557162934
25
 energy: 47.405978305222 xtb: 6.6.1 (8d0f1dd)
C            3.18914223119292        1.13142199586286        0.08753845471318
N            2.24942427776634        0.03931503822244        0.05994742831585
C            2.56140226265808       -1.25112687475567        0.14177661423812
N            1.37968039119601       -1.93543076917647        0.01645880337584
C            0.33751485454701       -1.05693730088766       -0.02736206674144
C            0.87257324658686        0.21341687129565       -0.00997325815385
C            0.05806412336349        1.39771854614919       -0.02291660332058
O            0.41824653399453        2.55582755330222       -0.00518298296102
N           -1.31258657913272        1.06871120073211       -0.03447113436825
C           -2.26638206833544        2.17105880992630       -0.04947733053854
C           -1.88180906466262       -0.18788459290352       -0.05059439298282
O           -3.07904048993244       -0.35378027571815       -0.06730099775354
N           -1.00380208302297       -1.28098754116374       -0.04897518943897
C           -1.55328332567568       -2.61785972591340       -0.06322777945756
H            3.66590932532091        1.17034371822537        1.06467069503720
H            3.95719371624660        0.98010264261227       -0.67002117515955
H            2.65924917083264        2.06604024545541       -0.09672138880898
H            4.76411075562548       -1.63358557877576        0.00618461264997
H           -1.70685332676133        3.10372414393514       -0.02460316652561
H           -2.87611912188266        2.12459312958497       -0.95168823793448
H           -2.92777024309233        2.10777363476770        0.81415702695293
H           -1.26037576954593       -3.17724029281947        0.82870986419231
H           -1.23490665812470       -3.15931764319242       -0.95695628014650
H           -2.63647925333016       -2.49433959131877       -0.07600525298921
H            1.23314745797884       -2.93346375591403       -0.01270304329909
25
 energy: 48.468751169641 xtb: 6.6.1 (8d0f1dd)
C            3.18572358054763        1.12672201205280        0.08912256160780
N            2.24389564088204        0.03636024742282        0.06441260003683
C            2.56037503267863       -1.25471756449087        0.15449147519520
N            1.37198765393275       -1.93339106982447        0.01918907071443
C            0.33027174935664       -1.05438026882677       -0.02883047915651
C            0.86742595122129        0.21556542218068       -0.01171021467828
C            0.05443113048302        1.40144188602746       -0.02802743422064
O            0.41173950341947        2.56101613354703       -0.00817470730755
N           -1.31704473799475        1.07161162307348       -0.03657706673052
C           -2.26956412302974        2.17492134039904       -0.04872752021038
C           -1.88867589913575       -0.18394452151694       -0.05248885489676
O           -3.08616052726419       -0.34894871489292       -0.06705355120691
N           -1.01095061883270       -1.27835026386671       -0.05104045847033
C           -1.56115597850719       -2.61509962070327       -0.06379505021924
H            3.66188490627446        1.16625946634038        1.06644032401616
H            3.95173661107351        0.97211027687132       -0.66978516738045
H            2.65805318548682        2.06156602646840       -0.09672095618018
H            4.87283569160018       -1.64606299311169       -0.00073611480657
H           -1.70953264021029        3.10706888190265       -0.02233351624059
H           -2.87898452137176        2.13075498404620       -0.95104414333493
H           -2.92998490501046        2.11171508392427        0.81558124887847
H           -1.26959950922978       -3.17486874534980        0.82866511374040
H           -1.24336721516321       -3.15867508276237       -0.95674915203527
H           -2.64417707542582       -2.48884173493315       -0.07701948700422
H            1.22768975508675       -2.93197729021834       -0.01209405695227
25
 energy: 49.694556054859 xtb: 6.6.1 (8d0f1dd)
C            3.18334308191662        1.12287913036652        0.08862577760118
N            2.24253971101733        0.03189123618579        0.06494609517217
C            2.56879082569400       -1.26159395281215        0.17064152233333
N            1.36930588090830       -1.93199427164628        0.02239378560111
C            0.32579141864823       -1.05383320463743       -0.03157234682868
C            0.86568649416746        0.21550064174089       -0.01565208256212
C            0.04983510371809        1.40152261939263       -0.02578473147266
O            0.40580408046609        2.56260594634762       -0.00447120529564
N           -1.32290497102725        1.07348858942409       -0.03609421221291
C           -2.27446161319167        2.17823268679723       -0.04796162213494
C           -1.89506827501040       -0.18138296633241       -0.05221456932194
O           -3.09315972169039       -0.34512193019912       -0.06558104623186
N           -1.01679678360940       -1.27675089551397       -0.05344453765830
C           -1.56718515636593       -2.61413979075459       -0.06424504428659
H            3.65504489172797        1.16142855614048        1.06796958710079
H            3.95093687872900        0.96555647076523       -0.66832508155251
H            2.65785557448670        2.05818827457255       -0.10028962924917
H            4.98492318741491       -1.66063998204045       -0.00842512227209
H           -1.71219900447694        3.10903774587016       -0.02253960228519
H           -2.88412268304858        2.13480314874193       -0.95042637208464
H           -2.93542691095287        2.11741820601957        0.81663187795055
H           -1.27607598954587       -3.17526348918926        0.82764049211604
H           -1.25020768930756       -3.15729732900353       -0.95762584572552
H           -2.65019380743994       -2.49288396643784       -0.07667042001879
H            1.23241607443309       -2.93164210967980       -0.00270086741158
25
 energy: 50.691558080331 xtb: 6.6.1 (8d0f1dd)
C            3.17927214999131        1.12173396849522        0.08943453648978
N            2.23836170887073        0.03237322367106        0.06582987675844
C            2.57073968317735       -1.26323896347712        0.17477928436524
N            1.36535997488842       -1.92967744578434        0.02311587706458
C            0.31978008341530       -1.05360441245590       -0.03464110163399
C            0.86194694634833        0.21562246198397       -0.02244387924317
C            0.04428366067454        1.40023151334861       -0.02539033589008
O            0.40274612656489        2.56153962892103       -0.00392955176081
N           -1.32916182757677        1.07442152081805       -0.03741226813491
C           -2.27843559232220        2.18083996928860       -0.04710838578655
C           -1.90120754809713       -0.18009019889131       -0.05345381240219
O           -3.10004427567122       -0.34177130338938       -0.06530825047643
N           -1.02353247540023       -1.27616327203233       -0.05625298905603
C           -1.57406705170510       -2.61458994006179       -0.06413035439629
H            3.65176416370686        1.16112045727702        1.06896872357537
H            3.94589330287296        0.95884589804520       -0.66750791298550
H            2.65446314428101        2.05644168820941       -0.10291193730710
H            5.09862317094505       -1.67473547170557       -0.01714887229982
H           -1.70943674880353        3.10771129604518       -0.02223176344975
H           -2.88949210673290        2.13923916607311       -0.94907404738377
H           -2.93844661977236        2.12114079470486        0.81872231929878
H           -1.28354375955071       -3.17472864159223        0.82835305485104
H           -1.25792626573288       -3.15790749239087       -0.95735804775668
H           -2.65743046176235       -2.49730581846156       -0.07560257756044
H            1.24367385126132       -2.93095119600683        0.00620236935909
25