      -----------------------------------------------------------      
     |                   =====================                   |     
     |                           x T B                           |     
     |                   =====================                   |     
     |                         S. Grimme                         |     
     |          Mulliken Center for Theoretical Chemistry        |     
     |                    University of Bonn                     |     
      -----------------------------------------------------------      

   * xtb version 6.6.1 (8d0f1dd) compiled by 'conda@1efc2f54142f' on 2023-08-01

   xtb is free software: you can redistribute it and/or modify it under
   the terms of the GNU Lesser General Public License as published by
   the Free Software Foundation, either version 3 of the License, or
   (at your option) any later version.
   
   xtb is distributed in the hope that it will be useful,
   but WITHOUT ANY WARRANTY; without even the implied warranty of
   MERCHANTABILITY or FITNESS FOR A PARTICULAR PURPOSE.  See the
   GNU Lesser General Public License for more details.
   
   Cite this work as:
   * C. Bannwarth, E. Caldeweyher, S. Ehlert, A. Hansen, P. Pracht,
     J. Seibert, S. Spicher, S. Grimme, WIREs Comput. Mol. Sci., 2020, 11,
     e01493. DOI: 10.1002/wcms.1493
   
   for GFN2-xTB:
   * C. Bannwarth, S. Ehlert and S. Grimme., J. Chem. Theory Comput., 2019,
     15, 1652-1671. DOI: 10.1021/acs.jctc.8b01176
   for GFN1-xTB:
   * S. Grimme, C. Bannwarth, P. Shushkov, J. Chem. Theory Comput., 2017,
     13, 1989-2009. DOI: 10.1021/acs.jctc.7b00118
   for GFN0-xTB:
   * P. Pracht, E. Caldeweyher, S. Ehlert, S. Grimme, ChemRxiv, 2019, preprint.
     DOI: 10.26434/chemrxiv.8326202.v1
   for GFN-FF:
   * S. Spicher and S. Grimme, Angew. Chem. Int. Ed., 2020, 59, 15665-15673.
     DOI: 10.1002/anie.202004239
   
   for ALPB and GBSA implicit solvation:
   * S. Ehlert, M. Stahn, S. Spicher, S. Grimme, J. Chem. Theory Comput.,
     2021, 17, 4250-4261. DOI: 10.1021/acs.jctc.1c00471
   
   for DFT-D4:
   * E. Caldeweyher, C. Bannwarth and S. Grimme, J. Chem. Phys., 2017,
     147, 034112. DOI: 10.1063/1.4993215
   * E. Caldeweyher, S. Ehlert, A. Hansen, H. Neugebauer, S. Spicher,
     C. Bannwarth and S. Grimme, J. Chem. Phys., 2019, 150, 154122.
     DOI: 10.1063/1.5090222
   * E. Caldeweyher, J.-M. Mewes, S. Ehlert and S. Grimme, Phys. Chem. Chem. Phys.
     2020, 22, 8499-8512. DOI: 10.1039/D0CP00502A
   
   for sTDA-xTB:
   * S. Grimme and C. Bannwarth, J. Chem. Phys., 2016, 145, 054103.
     DOI: 10.1063/1.4959605
   
   in the mass-spec context:
   * V. Asgeirsson, C. Bauer and S. Grimme, Chem. Sci., 2017, 8, 4879.
     DOI: 10.1039/c7sc00601b
   * J. Koopman and S. Grimme, ACS Omega 2019, 4, 12, 15120-15133.
     DOI: 10.1021/acsomega.9b02011
   
   for metadynamics refer to:
   * S. Grimme, J. Chem. Theory Comput., 2019, 155, 2847-2862
     DOI: 10.1021/acs.jctc.9b00143
   
   for SPH calculations refer to:
   * S. Spicher and S. Grimme, J. Chem. Theory Comput., 2021, 17, 1701-1714
     DOI: 10.1021/acs.jctc.0c01306
   
   with help from (in alphabetical order)
   P. Atkinson, C. Bannwarth, F. Bohle, G. Brandenburg, E. Caldeweyher
   M. Checinski, S. Dohm, S. Ehlert, S. Ehrlich, I. Gerasimov, C. Hölzer
   A. Katbashev, J. Koopman, C. Lavigne, S. Lehtola, F. März, M. Müller,
   F. Musil, H. Neugebauer, J. Pisarek, C. Plett, P. Pracht, F. Pultar,
   J. Seibert, P. Shushkov, S. Spicher, M. Stahn, M. Steiner, T. Strunk,
   J. Stückrath, T. Rose, and J. Unsleber
   
 * started run on 2024/04/06 at 11:11:30.322     

           -------------------------------------------------
          |                Calculation Setup                |
           -------------------------------------------------

          program call               : xtb struc.xyz --opt loose --input .xc1 --gfn2
          hostname                   : n-62-30-23
          coordinate file            : struc.xyz
          omp threads                :                     1

   ID    Z sym.   atoms
    1    7 N      1, 17
    2    6 C      2-6, 8, 9, 11-16, 18-23, 25, 26, 28-33
    3    8 O      7, 10, 24, 27
    4    1 H      34-72
constraining bond 1 2 to    3.9200000 Å, actual value:    1.2352558 Å

           -------------------------------------------------
          |                 G F N 2 - x T B                 |
           -------------------------------------------------

        Reference                      10.1021/acs.jctc.8b01176
      * Hamiltonian:
        H0-scaling (s, p, d)           1.850000    2.230000    2.230000
        zeta-weighting                 0.500000
      * Dispersion:
        s8                             2.700000
        a1                             0.520000
        a2                             5.000000
        s9                             5.000000
      * Repulsion:
        kExp                           1.500000    1.000000
        rExp                           1.000000
      * Coulomb:
        alpha                          2.000000
        third order                    shell-resolved
        anisotropic                    true
        a3                             3.000000
        a5                             4.000000
        cn-shift                       1.200000
        cn-exp                         4.000000
        max-rad                        5.000000


          ...................................................
          :                      SETUP                      :
          :.................................................:
          :  # basis functions                 171          :
          :  # atomic orbitals                 171          :
          :  # shells                          105          :
          :  # electrons                       180          :
          :  max. iterations                   250          :
          :  Hamiltonian                  GFN2-xTB          :
          :  restarted?                      false          :
          :  GBSA solvation                  false          :
          :  PC potential                    false          :
          :  electronic temp.         5000.0000000     K    :
          :  accuracy                    1.0000000          :
          :  -> integral cutoff          0.2500000E+02      :
          :  -> integral neglect         0.1000000E-07      :
          :  -> SCF convergence          0.1000000E-05 Eh   :
          :  -> wf. convergence          0.1000000E-03 e    :
          :  Broyden damping             0.4000000          :
          ...................................................

 iter      E             dE          RMSdq      gap      omega  full diag
   1   -100.5973919 -0.100597E+03  0.374E+00    3.20       0.0  T
   2   -100.7362642 -0.138872E+00  0.221E+00    1.08       1.0  T
   3   -100.7049001  0.313641E-01  0.141E+00    3.29       1.0  T
   4   -100.7721690 -0.672689E-01  0.526E-01    1.50       1.0  T
   5   -100.7894292 -0.172602E-01  0.190E-01    1.98       1.0  T
   6   -100.7911978 -0.176856E-02  0.792E-02    1.77       1.0  T
   7   -100.7914750 -0.277198E-03  0.375E-02    1.83       1.0  T
   8   -100.7914914 -0.164582E-04  0.140E-02    1.83       1.0  T
   9   -100.7914976 -0.616739E-05  0.474E-03    1.82       2.5  T
  10   -100.7914988 -0.118227E-05  0.172E-03    1.82       6.8  T
  11   -100.7914989 -0.139928E-06  0.766E-04    1.82      15.4  T
  12   -100.7914989 -0.773143E-08  0.318E-04    1.82      37.0  T

   *** convergence criteria satisfied after 12 iterations ***

         #    Occupation            Energy/Eh            Energy/eV
      -------------------------------------------------------------
         1        2.0000           -0.8078051             -21.9815
       ...           ...                  ...                  ...
        84        1.9966           -0.5157491             -14.0342
        85        1.9959           -0.5128261             -13.9547
        86        1.9840           -0.4911498             -13.3649
        87        1.9795           -0.4872543             -13.2589
        88        1.9640           -0.4782114             -13.0128
        89        1.8920           -0.4602041             -12.5228
        90        1.8557           -0.4553147             -12.3897 (HOMO)
        91        0.3166           -0.3884132             -10.5693 (LUMO)
        92        0.0218           -0.3434697              -9.3463
        93        0.0041           -0.3169887              -8.6257
        94        0.0034           -0.3139726              -8.5436
        95        0.0029           -0.3112618              -8.4699
       ...           ...                  ...                  ...
       171                          0.5822580              15.8440
      -------------------------------------------------------------
                  HL-Gap            0.0669015 Eh            1.8205 eV
             Fermi-level           -0.4148687 Eh          -11.2892 eV

 SCC (total)                   0 d,  0 h,  0 min,  0.190 sec
 SCC setup                      ...        0 min,  0.001 sec (  0.504%)
 Dispersion                     ...        0 min,  0.002 sec (  0.913%)
 classical contributions        ...        0 min,  0.000 sec (  0.226%)
 integral evaluation            ...        0 min,  0.019 sec (  9.763%)
 iterations                     ...        0 min,  0.099 sec ( 51.944%)
 molecular gradient             ...        0 min,  0.069 sec ( 36.325%)
 printout                       ...        0 min,  0.001 sec (  0.318%)

         :::::::::::::::::::::::::::::::::::::::::::::::::::::
         ::                     SUMMARY                     ::
         :::::::::::::::::::::::::::::::::::::::::::::::::::::
         :: total energy             -98.117145928707 Eh    ::
         :: gradient norm              0.733450224993 Eh/a0 ::
         :: HOMO-LUMO gap              1.820481192090 eV    ::
         ::.................................................::
         :: SCC energy              -100.791498925389 Eh    ::
         :: -> isotropic ES            0.109302908418 Eh    ::
         :: -> anisotropic ES          0.005415138735 Eh    ::
         :: -> anisotropic XC          0.042392697176 Eh    ::
         :: -> dispersion             -0.075527661009 Eh    ::
         :: repulsion energy           1.386151658689 Eh    ::
         :: add. restraining           1.286984985487 Eh    ::
         :: total charge               1.000000000108 e     ::
         :::::::::::::::::::::::::::::::::::::::::::::::::::::

      ----------------------------------------------------------- 
     |                   =====================                   |
     |                        A N C O P T                        |
     |                   =====================                   |
     |               Approximate Normal Coordinate               |
     |                Rational Function Optimizer                |
      ----------------------------------------------------------- 

          ...................................................
          :                      SETUP                      :
          :.................................................:
          :   optimization level             loose          :
          :   max. optcycles                   200          :
          :   ANC micro-cycles                  20          :
          :   degrees of freedom               210          :
          :.................................................:
          :   RF solver                   davidson          :
          :   write xtbopt.log                true          :
          :   linear?                        false          :
          :   energy convergence         0.5000000E-04 Eh   :
          :   grad. convergence          0.4000000E-02 Eh/α :
          :   maxmium RF displ.          1.0000000          :
          :   Hlow (freq-cutoff)         0.1000000E-01      :
          :   Hmax (freq-cutoff)         5.0000000          :
          :   S6 in model hess.         20.0000000          :
          ...................................................

generating ANC from model Hessian ...
Using Lindh-Hessian (1995)
 Shifting diagonal of input Hessian by   0.32177790670944545     
 Lowest  eigenvalues of input Hessian
    0.010000    0.269442    0.000000    0.000000    0.000000    0.000000
    0.000000    0.000000    0.321833    0.321911    0.321978    0.322050
    0.322130    0.322451    0.322605    0.322774    0.323079    0.323681
 Highest eigenvalues
    2.347741    2.357735    2.363359    2.495608    2.496276    2.681482


........................................................................
.............................. CYCLE    1 ..............................
........................................................................

 iter      E             dE          RMSdq      gap      omega  full diag
   1   -100.7914989 -0.100791E+03  0.114E-04    1.82       0.0  T
   2   -100.7914989 -0.678995E-10  0.713E-05    1.82     165.2  T
   3   -100.7914989  0.665210E-10  0.496E-05    1.82     237.5  T
     SCC iter.                  ...        0 min,  0.027 sec
     gradient                   ...        0 min,  0.068 sec
 * total energy  :   -98.1171459 Eh     change       -0.4035485E-08 Eh
   gradient norm :     0.7334480 Eh/α   predicted     0.0000000E+00 (-100.00%)
   displ. norm   :     0.2855298 α      lambda       -0.1991799E+00
   maximum displ.:     0.2484417 α      in ANC's #210, #150, #148, ...

........................................................................
.............................. CYCLE    2 ..............................
........................................................................

 iter      E             dE          RMSdq      gap      omega  full diag
   1   -100.6983278 -0.100698E+03  0.443E-01    1.48       0.0  T
   2   -100.6877873  0.105406E-01  0.601E-01    1.57       1.0  T
   3   -100.7255891 -0.378018E-01  0.174E-01    1.89       1.0  T
   4   -100.7264951 -0.906072E-03  0.146E-01    1.70       1.0  T
   5   -100.7270188 -0.523630E-03  0.788E-02    1.75       1.0  T
   6   -100.7272219 -0.203110E-03  0.311E-02    1.75       1.0  T
   7   -100.7272839 -0.620473E-04  0.115E-02    1.73       1.0  T
   8   -100.7272887 -0.482121E-05  0.634E-03    1.74       1.9  T
   9   -100.7272896 -0.812595E-06  0.223E-03    1.74       5.3  T
  10   -100.7272898 -0.257628E-06  0.510E-04    1.74      23.1  T
  11   -100.7272898 -0.459758E-08  0.276E-04    1.74      42.6  T
     SCC iter.                  ...        0 min,  0.090 sec
     gradient                   ...        0 min,  0.069 sec
 * total energy  :   -98.2705580 Eh     change       -0.1534121E+00 Eh
   gradient norm :     0.4476603 Eh/α   predicted    -0.1077098E+00 ( -29.79%)
   displ. norm   :     0.3982399 α      lambda       -0.1695448E+00
   maximum displ.:     0.3383099 α      in ANC's #210, #150, #148, ...

........................................................................
.............................. CYCLE    3 ..............................
........................................................................

 iter      E             dE          RMSdq      gap      omega  full diag
   1   -100.5996642 -0.100600E+03  0.582E-01    1.13       0.0  T
   2   -100.4934763  0.106188E+00  0.106E+00    0.93       1.0  T
   3   -100.6327070 -0.139231E+00  0.276E-01    1.89       1.0  T
   4   -100.6343405 -0.163358E-02  0.288E-01    1.57       1.0  T
   5   -100.6382401 -0.389957E-02  0.129E-01    1.51       1.0  T
   6   -100.6388059 -0.565828E-03  0.104E-01    1.65       1.0  T
   7   -100.6395973 -0.791322E-03  0.318E-02    1.62       1.0  T
   8   -100.6396815 -0.842381E-04  0.681E-03    1.63       1.7  T
   9   -100.6396844 -0.289007E-05  0.287E-03    1.63       4.1  T
  10   -100.6396848 -0.372488E-06  0.715E-04    1.63      16.5  T
  11   -100.6396848 -0.288515E-07  0.277E-04    1.63      42.6  T
     SCC iter.                  ...        0 min,  0.090 sec
     gradient                   ...        0 min,  0.069 sec
 * total energy  :   -98.4166158 Eh     change       -0.1460578E+00 Eh
   gradient norm :     0.3426074 Eh/α   predicted    -0.9821706E-01 ( -32.75%)
   displ. norm   :     0.7121308 α      lambda       -0.2348612E+00
   maximum displ.:     0.5996523 α      in ANC's #210, #148, #150, ...

........................................................................
.............................. CYCLE    4 ..............................
........................................................................

 iter      E             dE          RMSdq      gap      omega  full diag
   1   -100.5009528 -0.100501E+03  0.750E-01    0.64       0.0  T
   2   -100.3094574  0.191495E+00  0.139E+00    0.97       1.0  T
   3   -100.4600320 -0.150575E+00  0.888E-01    0.53       1.0  T
   4   -100.4873902 -0.273582E-01  0.489E-01    0.79       1.0  T
   5   -100.5160515 -0.286612E-01  0.233E-01    0.63       1.0  T
   6   -100.5208159 -0.476441E-02  0.877E-02    0.68       1.0  T
   7   -100.5214911 -0.675180E-03  0.440E-02    0.68       1.0  T
   8   -100.5216471 -0.156017E-03  0.162E-02    0.69       1.0  T
   9   -100.5216698 -0.227212E-04  0.640E-03    0.69       1.8  T
  10   -100.5216727 -0.291467E-05  0.197E-03    0.69       6.0  T
  11   -100.5216730 -0.268007E-06  0.595E-04    0.69      19.8  T
  12   -100.5216730 -0.190634E-07  0.277E-04    0.69      42.6  T
     SCC iter.                  ...        0 min,  0.097 sec
     gradient                   ...        0 min,  0.069 sec
 * total energy  :   -98.6351042 Eh     change       -0.2184883E+00 Eh
   gradient norm :     0.3016115 Eh/α   predicted    -0.1769894E+00 ( -18.99%)
   displ. norm   :     0.9046698 α      lambda       -0.2642055E+00
   maximum displ.:     0.7699023 α      in ANC's #210, #148, #150, ...

........................................................................
.............................. CYCLE    5 ..............................
........................................................................

 iter      E             dE          RMSdq      gap      omega  full diag
   1   -100.4342758 -0.100434E+03  0.726E-01    0.26       0.0  T
   2   -100.3010156  0.133260E+00  0.110E+00    0.68       1.0  T
   3   -100.1691736  0.131842E+00  0.163E+00    0.54       1.0  T
   4   -100.4357885 -0.266615E+00  0.182E-01    0.26       1.0  T
   5   -100.4357411  0.474750E-04  0.173E-01    0.23       1.0  T
   6   -100.4388752 -0.313412E-02  0.869E-02    0.26       1.0  T
   7   -100.4394397 -0.564534E-03  0.493E-02    0.23       1.0  T
   8   -100.4396873 -0.247608E-03  0.128E-02    0.25       1.0  T
   9   -100.4397048 -0.174252E-04  0.425E-03    0.25       2.8  T
  10   -100.4397057 -0.907389E-06  0.192E-03    0.25       6.1  T
  11   -100.4397058 -0.960933E-07  0.111E-03    0.25      10.6  T
  12   -100.4397059 -0.122146E-06  0.449E-04    0.25      26.3  T
  13   -100.4397059 -0.212546E-07  0.836E-05    0.25     141.0  T
     SCC iter.                  ...        0 min,  0.104 sec
     gradient                   ...        0 min,  0.069 sec
 * total energy  :   -98.8694456 Eh     change       -0.2343415E+00 Eh
   gradient norm :     0.2341568 Eh/α   predicted    -0.2402243E+00 (   2.51%)
   displ. norm   :     0.8146768 α      lambda       -0.1792372E+00
   maximum displ.:     0.6895856 α      in ANC's #210, #148, #2, ...

........................................................................
.............................. CYCLE    6 ..............................
........................................................................

 iter      E             dE          RMSdq      gap      omega  full diag
   1   -100.3678049 -0.100368E+03  0.652E-01    0.04       0.0  T
   2    -99.6402523  0.727553E+00  0.234E+00    1.34       1.0  T
   3   -100.3329684 -0.692716E+00  0.735E-01    0.13       1.0  T
   4   -100.3859249 -0.529564E-01  0.210E-01    0.13       1.0  T
   5   -100.3893575 -0.343265E-02  0.105E-01    0.08       1.0  T
   6   -100.3891109  0.246668E-03  0.109E-01    0.07       1.0  T
   7   -100.3903047 -0.119381E-02  0.380E-02    0.09       1.0  T
   8   -100.3904701 -0.165468E-03  0.651E-03    0.10       1.8  T
   9   -100.3904735 -0.331319E-05  0.289E-03    0.10       4.1  T
  10   -100.3904741 -0.680707E-06  0.916E-04    0.10      12.9  T
  11   -100.3904742 -0.679810E-07  0.273E-04    0.10      43.2  T
     SCC iter.                  ...        0 min,  0.089 sec
     gradient                   ...        0 min,  0.069 sec
 * total energy  :   -98.9971757 Eh     change       -0.1277300E+00 Eh
   gradient norm :     0.1366118 Eh/α   predicted    -0.1490983E+00 (  16.73%)
   displ. norm   :     0.5123670 α      lambda       -0.5686124E-01
   maximum displ.:     0.3545015 α      in ANC's #210, #1, #2, ...

........................................................................
.............................. CYCLE    7 ..............................
........................................................................

 iter      E             dE          RMSdq      gap      omega  full diag
   1   -100.3434589 -0.100343E+03  0.554E-01    0.05       0.0  T
   2    -99.3684254  0.975034E+00  0.268E+00    1.53       1.0  T
   3   -100.3755479 -0.100712E+01  0.177E-01    0.05       1.0  T
   4   -100.3743740  0.117389E-02  0.185E-01    0.04       1.0  T
   5   -100.3747815 -0.407443E-03  0.162E-01    0.02       1.0  T
   6   -100.3779440 -0.316249E-02  0.422E-02    0.02       1.0  T
   7   -100.3780002 -0.562849E-04  0.365E-02    0.04       1.0  T
   8   -100.3781776 -0.177320E-03  0.430E-03    0.03       2.7  T
   9   -100.3781797 -0.210951E-05  0.160E-03    0.03       7.4  T
  10   -100.3781798 -0.963196E-07  0.105E-03    0.03      11.3  T
  11   -100.3781798 -0.639011E-07  0.532E-04    0.03      22.1  T
  12   -100.3781799 -0.299589E-07  0.895E-05    0.03     131.7  T
     SCC iter.                  ...        0 min,  0.097 sec
     gradient                   ...        0 min,  0.069 sec
 * total energy  :   -99.0390968 Eh     change       -0.4192110E-01 Eh
   gradient norm :     0.1163929 Eh/α   predicted    -0.3589428E-01 ( -14.38%)
   displ. norm   :     0.4858747 α      lambda       -0.4216358E-01
   maximum displ.:     0.2206871 α      in ANC's #210, #2, #52, ...

........................................................................
.............................. CYCLE    8 ..............................
........................................................................

 iter      E             dE          RMSdq      gap      omega  full diag
   1   -100.3603652 -0.100360E+03  0.490E-01    0.04       0.0  T
   2    -99.3455957  0.101477E+01  0.271E+00    1.44       1.0  T
   3   -100.3541347 -0.100854E+01  0.583E-01    0.11       1.0  T
   4   -100.3913752 -0.372405E-01  0.190E-01    0.01       1.0  T
   5   -100.3856523  0.572291E-02  0.254E-01    0.01       1.0  T
   6   -100.3950289 -0.937659E-02  0.545E-02    0.01       1.0  T
   7   -100.3952642 -0.235368E-03  0.269E-02    0.01       1.0  T
   8   -100.3953339 -0.696641E-04  0.957E-03    0.01       1.2  T
   9   -100.3953442 -0.102968E-04  0.501E-03    0.01       2.4  T
  10   -100.3953470 -0.284825E-05  0.146E-03    0.01       8.1  T
  11   -100.3953473 -0.250291E-06  0.303E-04    0.01      38.9  T
  12   -100.3953473 -0.307351E-08  0.178E-04    0.01      66.4  T
     SCC iter.                  ...        0 min,  0.097 sec
     gradient                   ...        0 min,  0.075 sec
 * total energy  :   -99.0737586 Eh     change       -0.3466179E-01 Eh
   gradient norm :     0.1030247 Eh/α   predicted    -0.2605866E-01 ( -24.82%)
   displ. norm   :     0.6212049 α      lambda       -0.4721276E-01
   maximum displ.:     0.2947066 α      in ANC's #2, #52, #210, ...

........................................................................
.............................. CYCLE    9 ..............................
........................................................................

 iter      E             dE          RMSdq      gap      omega  full diag
   1   -100.4119945 -0.100412E+03  0.483E-01    0.01       0.0  T
   2    -99.6073025  0.804692E+00  0.243E+00    0.99       1.0  T
   3   -100.3264703 -0.719168E+00  0.975E-01    0.11       1.0  T
   4   -100.4093169 -0.828467E-01  0.467E-01    0.01       1.0  T
   5   -100.4237217 -0.144047E-01  0.284E-01    0.00       1.0  T
   6   -100.4367440 -0.130223E-01  0.798E-02    0.01       1.0  T
   7   -100.4373199 -0.575938E-03  0.352E-02    0.01       1.0  T
   8   -100.4373755 -0.556346E-04  0.229E-02    0.01       1.0  T
   9   -100.4374023 -0.267738E-04  0.158E-02    0.01       1.0  T
  10   -100.4374301 -0.278058E-04  0.469E-03    0.01       2.5  T
  11   -100.4374322 -0.205539E-05  0.252E-03    0.01       4.7  T
  12   -100.4374329 -0.719792E-06  0.382E-04    0.01      30.9  T
  13   -100.4374329 -0.961744E-08  0.274E-04    0.01      43.0  T
     SCC iter.                  ...        0 min,  0.104 sec
     gradient                   ...        0 min,  0.069 sec
 * total energy  :   -99.1006558 Eh     change       -0.2689722E-01 Eh
   gradient norm :     0.1567657 Eh/α   predicted    -0.3271609E-01 (  21.63%)
   displ. norm   :     0.3632048 α      lambda       -0.2884480E-01
   maximum displ.:     0.1426119 α      in ANC's #52, #1, #2, ...

........................................................................
.............................. CYCLE   10 ..............................
........................................................................

 iter      E             dE          RMSdq      gap      omega  full diag
   1   -100.4378418 -0.100438E+03  0.405E-01    0.01       0.0  T
   2   -100.0542772  0.383565E+00  0.163E+00    0.45       1.0  T
   3   -100.4387609 -0.384484E+00  0.288E-01    0.01       1.0  T
   4   -100.4436436 -0.488273E-02  0.235E-01    0.01       1.0  T
   5   -100.4461050 -0.246140E-02  0.925E-02    0.01       1.0  T
   6   -100.4473213 -0.121632E-02  0.565E-02    0.01       1.0  T
   7   -100.4476507 -0.329402E-03  0.102E-02    0.01       1.2  T
   8   -100.4476611 -0.103979E-04  0.302E-03    0.01       3.9  T
   9   -100.4476619 -0.733737E-06  0.114E-03    0.01      10.3  T
  10   -100.4476619 -0.286768E-07  0.590E-04    0.01      20.0  T
  11   -100.4476619 -0.328554E-07  0.218E-04    0.01      54.1  T
     SCC iter.                  ...        0 min,  0.088 sec
     gradient                   ...        0 min,  0.069 sec
 * total energy  :   -99.1272294 Eh     change       -0.2657362E-01 Eh
   gradient norm :     0.1172157 Eh/α   predicted    -0.1632499E-01 ( -38.57%)
   displ. norm   :     0.7900950 α      lambda       -0.6500620E-01
   maximum displ.:     0.3146890 α      in ANC's #52, #1, #53, ...

........................................................................
.............................. CYCLE   11 ..............................
........................................................................

 iter      E             dE          RMSdq      gap      omega  full diag
   1   -100.4530053 -0.100453E+03  0.679E-01    0.01       0.0  T
   2    -99.9857955  0.467210E+00  0.181E+00    0.36       1.0  T
   3   -100.3543724 -0.368577E+00  0.994E-01    0.26       1.0  T
   4   -100.4425139 -0.881416E-01  0.574E-01    0.01       1.0  T
   5   -100.4603956 -0.178816E-01  0.219E-01    0.01       1.0  T
   6   -100.4677361 -0.734052E-02  0.914E-02    0.01       1.0  T
   7   -100.4684404 -0.704328E-03  0.238E-02    0.01       1.0  T
   8   -100.4684879 -0.474468E-04  0.106E-02    0.01       1.1  T
   9   -100.4684991 -0.112057E-04  0.461E-03    0.01       2.6  T
  10   -100.4685000 -0.930831E-06  0.272E-03    0.01       4.3  T
  11   -100.4685006 -0.560409E-06  0.712E-04    0.01      16.6  T
  12   -100.4685006 -0.258197E-07  0.240E-04    0.01      49.1  T
     SCC iter.                  ...        0 min,  0.095 sec
     gradient                   ...        0 min,  0.069 sec
 * total energy  :   -99.1738345 Eh     change       -0.4660505E-01 Eh
   gradient norm :     0.0917448 Eh/α   predicted    -0.5279318E-01 (  13.28%)
   displ. norm   :     0.4358309 α      lambda       -0.2282319E-01
   maximum displ.:     0.1473019 α      in ANC's #210, #94, #52, ...

........................................................................
.............................. CYCLE   12 ..............................
........................................................................

 iter      E             dE          RMSdq      gap      omega  full diag
   1   -100.4758192 -0.100476E+03  0.305E-01    0.01       0.0  T
   2   -100.4542383  0.215809E-01  0.421E-01    0.01       1.0  T
   3   -100.4131943  0.410440E-01  0.725E-01    0.11       1.0  T
   4   -100.4728143 -0.596200E-01  0.200E-01    0.01       1.0  T
   5   -100.4753393 -0.252493E-02  0.102E-01    0.01       1.0  T
   6   -100.4765024 -0.116313E-02  0.426E-02    0.01       1.0  T
   7   -100.4767257 -0.223254E-03  0.858E-03    0.01       1.4  T
   8   -100.4767331 -0.747221E-05  0.273E-03    0.01       4.3  T
   9   -100.4767338 -0.695997E-06  0.128E-03    0.01       9.2  T
  10   -100.4767339 -0.485221E-07  0.748E-04    0.01      15.8  T
  11   -100.4767339 -0.467343E-07  0.232E-04    0.01      50.8  T
     SCC iter.                  ...        0 min,  0.088 sec
     gradient                   ...        0 min,  0.071 sec
 * total energy  :   -99.1866674 Eh     change       -0.1283295E-01 Eh
   gradient norm :     0.0899456 Eh/α   predicted    -0.1357932E-01 (   5.82%)
   displ. norm   :     0.4534884 α      lambda       -0.1536632E-01
   maximum displ.:     0.3690046 α      in ANC's #1, #52, #2, ...

........................................................................
.............................. CYCLE   13 ..............................
........................................................................

 iter      E             dE          RMSdq      gap      omega  full diag
   1   -100.4788035 -0.100479E+03  0.285E-01    0.00       0.0  T
   2   -100.4121181  0.666854E-01  0.814E-01    0.19       1.0  T
   3   -100.4658259 -0.537078E-01  0.341E-01    0.01       1.0  T
   4   -100.4655569  0.268994E-03  0.340E-01    0.01       1.0  T
   5   -100.4814578 -0.159008E-01  0.362E-02    0.01       1.0  T
   6   -100.4814379  0.198553E-04  0.267E-02    0.01       1.0  T
   7   -100.4815267 -0.888197E-04  0.891E-03    0.01       1.3  T
   8   -100.4815374 -0.106920E-04  0.379E-03    0.01       3.1  T
   9   -100.4815387 -0.123649E-05  0.203E-03    0.01       5.8  T
  10   -100.4815390 -0.369429E-06  0.582E-04    0.01      20.3  T
  11   -100.4815391 -0.168682E-07  0.304E-04    0.01      38.7  T
     SCC iter.                  ...        0 min,  0.088 sec
     gradient                   ...        0 min,  0.069 sec
 * total energy  :   -99.1916261 Eh     change       -0.4958722E-02 Eh
   gradient norm :     0.0945923 Eh/α   predicted    -0.9263470E-02 (  86.81%)
   displ. norm   :     0.3937380 α      lambda       -0.2067310E-01
   maximum displ.:     0.2222141 α      in ANC's #1, #210, #65, ...

........................................................................
.............................. CYCLE   14 ..............................
........................................................................

 iter      E             dE          RMSdq      gap      omega  full diag
   1   -100.5044576 -0.100504E+03  0.306E-01    0.01       0.0  T
   2   -100.4558596  0.485980E-01  0.611E-01    0.04       1.0  T
   3   -100.4567712 -0.911534E-03  0.638E-01    0.02       1.0  T
   4   -100.5020066 -0.452354E-01  0.172E-01    0.01       1.0  T
   5   -100.5052544 -0.324788E-02  0.899E-02    0.01       1.0  T
   6   -100.5057816 -0.527198E-03  0.326E-02    0.01       1.0  T
   7   -100.5059226 -0.140974E-03  0.764E-03    0.01       1.5  T
   8   -100.5059297 -0.703595E-05  0.256E-03    0.01       4.6  T
   9   -100.5059300 -0.313173E-06  0.173E-03    0.01       6.8  T
  10   -100.5059301 -0.156354E-06  0.959E-04    0.01      12.3  T
  11   -100.5059302 -0.928556E-07  0.114E-04    0.01     103.5  T
     SCC iter.                  ...        0 min,  0.088 sec
     gradient                   ...        0 min,  0.069 sec
 * total energy  :   -99.2032695 Eh     change       -0.1164333E-01 Eh
   gradient norm :     0.0538545 Eh/α   predicted    -0.1193907E-01 (   2.54%)
   displ. norm   :     0.2192165 α      lambda       -0.6426969E-02
   maximum displ.:     0.1332905 α      in ANC's #1, #52, #59, ...

........................................................................
.............................. CYCLE   15 ..............................
........................................................................

 iter      E             dE          RMSdq      gap      omega  full diag
   1   -100.5150767 -0.100515E+03  0.143E-01    0.01       0.0  T
   2   -100.5107558  0.432083E-02  0.179E-01    0.01       1.0  T
   3   -100.4934735  0.172824E-01  0.412E-01    0.01       1.0  T
   4   -100.5137389 -0.202655E-01  0.111E-01    0.01       1.0  T
   5   -100.5151354 -0.139645E-02  0.385E-02    0.01       1.0  T
   6   -100.5152246 -0.892003E-04  0.199E-02    0.01       1.0  T
   7   -100.5152763 -0.517787E-04  0.252E-03    0.01       4.7  T
   8   -100.5152767 -0.344662E-06  0.128E-03    0.01       9.2  T
   9   -100.5152768 -0.118506E-06  0.706E-04    0.01      16.7  T
  10   -100.5152769 -0.481979E-07  0.167E-04    0.01      70.7  T
     SCC iter.                  ...        0 min,  0.082 sec
     gradient                   ...        0 min,  0.069 sec
 * total energy  :   -99.2079166 Eh     change       -0.4647105E-02 Eh
   gradient norm :     0.0439939 Eh/α   predicted    -0.3367940E-02 ( -27.53%)
   displ. norm   :     0.2991542 α      lambda       -0.7890833E-02
   maximum displ.:     0.0938991 α      in ANC's #59, #65, #56, ...

........................................................................
.............................. CYCLE   16 ..............................
........................................................................

 iter      E             dE          RMSdq      gap      omega  full diag
   1   -100.5296782 -0.100530E+03  0.135E-01    0.01       0.0  T
   2   -100.5169734  0.127048E-01  0.330E-01    0.01       1.0  T
   3   -100.5285693 -0.115958E-01  0.121E-01    0.01       1.0  T
   4   -100.5292567 -0.687486E-03  0.671E-02    0.01       1.0  T
   5   -100.5297135 -0.456810E-03  0.490E-02    0.01       1.0  T
   6   -100.5299649 -0.251316E-03  0.135E-02    0.01       1.0  T
   7   -100.5299812 -0.163780E-04  0.428E-03    0.01       2.8  T
   8   -100.5299826 -0.134398E-05  0.175E-03    0.01       6.8  T
   9   -100.5299828 -0.203166E-06  0.703E-04    0.01      16.8  T
  10   -100.5299828 -0.197051E-07  0.215E-04    0.01      54.8  T
     SCC iter.                  ...        0 min,  0.080 sec
     gradient                   ...        0 min,  0.069 sec
 * total energy  :   -99.2130871 Eh     change       -0.5170523E-02 Eh
   gradient norm :     0.0492708 Eh/α   predicted    -0.4298575E-02 ( -16.86%)
   displ. norm   :     0.3117810 α      lambda       -0.5028030E-02
   maximum displ.:     0.0925705 α      in ANC's #59, #52, #56, ...

........................................................................
.............................. CYCLE   17 ..............................
........................................................................

 iter      E             dE          RMSdq      gap      omega  full diag
   1   -100.5327483 -0.100533E+03  0.146E-01    0.01       0.0  T
   2   -100.5209136  0.118347E-01  0.342E-01    0.01       1.0  T
   3   -100.5308882 -0.997460E-02  0.138E-01    0.01       1.0  T
   4   -100.5262949  0.459334E-02  0.216E-01    0.01       1.0  T
   5   -100.5331260 -0.683108E-02  0.188E-02    0.01       1.0  T
   6   -100.5331326 -0.658885E-05  0.810E-03    0.01       1.5  T
   7   -100.5331397 -0.710277E-05  0.252E-03    0.01       4.7  T
   8   -100.5331406 -0.933554E-06  0.567E-04    0.01      20.8  T
   9   -100.5331406 -0.110204E-07  0.331E-04    0.01      35.6  T
     SCC iter.                  ...        0 min,  0.073 sec
     gradient                   ...        0 min,  0.069 sec
 * total energy  :   -99.2166965 Eh     change       -0.3609438E-02 Eh
   gradient norm :     0.0383977 Eh/α   predicted    -0.2758422E-02 ( -23.58%)
   displ. norm   :     0.2771545 α      lambda       -0.3912169E-02
   maximum displ.:     0.0893107 α      in ANC's #59, #11, #37, ...

........................................................................
.............................. CYCLE   18 ..............................
........................................................................

 iter      E             dE          RMSdq      gap      omega  full diag
   1   -100.5359441 -0.100536E+03  0.107E-01    0.01       0.0  T
   2   -100.5279051  0.803905E-02  0.283E-01    0.01       1.0  T
   3   -100.5357000 -0.779490E-02  0.744E-02    0.01       1.0  T
   4   -100.5312732  0.442674E-02  0.187E-01    0.01       1.0  T
   5   -100.5361946 -0.492132E-02  0.136E-02    0.01       1.0  T
   6   -100.5362010 -0.643222E-05  0.954E-03    0.01       1.2  T
   7   -100.5362109 -0.993176E-05  0.188E-03    0.01       6.3  T
   8   -100.5362112 -0.312732E-06  0.650E-04    0.01      18.1  T
   9   -100.5362113 -0.211108E-07  0.333E-04    0.01      35.4  T
     SCC iter.                  ...        0 min,  0.073 sec
     gradient                   ...        0 min,  0.069 sec
 * total energy  :   -99.2193926 Eh     change       -0.2696039E-02 Eh
   gradient norm :     0.0252906 Eh/α   predicted    -0.2106349E-02 ( -21.87%)
   displ. norm   :     0.1862326 α      lambda       -0.2106765E-02
   maximum displ.:     0.0576990 α      in ANC's #11, #59, #37, ...

........................................................................
.............................. CYCLE   19 ..............................
........................................................................

 iter      E             dE          RMSdq      gap      omega  full diag
   1   -100.5383729 -0.100538E+03  0.631E-02    0.01       0.0  T
   2   -100.5353775  0.299534E-02  0.169E-01    0.01       1.0  T
   3   -100.5382558 -0.287827E-02  0.450E-02    0.01       1.0  T
   4   -100.5369868  0.126897E-02  0.102E-01    0.01       1.0  T
   5   -100.5384579 -0.147107E-02  0.471E-03    0.01       2.5  T
   6   -100.5384594 -0.155243E-05  0.208E-03    0.01       5.7  T
   7   -100.5384597 -0.267086E-06  0.114E-03    0.01      10.4  T
   8   -100.5384598 -0.131166E-06  0.339E-04    0.01      34.7  T
   9   -100.5384598 -0.222485E-08  0.189E-04    0.01      62.5  T
     SCC iter.                  ...        0 min,  0.072 sec
     gradient                   ...        0 min,  0.069 sec
 * total energy  :   -99.2209401 Eh     change       -0.1547584E-02 Eh
   gradient norm :     0.0236685 Eh/α   predicted    -0.1089927E-02 ( -29.57%)
   displ. norm   :     0.1976234 α      lambda       -0.2096672E-02
   maximum displ.:     0.0671680 α      in ANC's #11, #31, #23, ...

........................................................................
.............................. CYCLE   20 ..............................
........................................................................

 iter      E             dE          RMSdq      gap      omega  full diag
   1   -100.5417726 -0.100542E+03  0.549E-02    0.02       0.0  T
   2   -100.5410975  0.675130E-03  0.830E-02    0.02       1.0  T
   3   -100.5411064 -0.897805E-05  0.744E-02    0.02       1.0  T
   4   -100.5416130 -0.506513E-03  0.354E-02    0.02       1.0  T
   5   -100.5417845 -0.171591E-03  0.877E-03    0.02       1.3  T
   6   -100.5417922 -0.770263E-05  0.208E-03    0.02       5.7  T
   7   -100.5417923 -0.653168E-07  0.136E-03    0.02       8.7  T
   8   -100.5417926 -0.280405E-06  0.323E-04    0.02      36.5  T
   9   -100.5417926 -0.110398E-08  0.209E-04    0.02      56.4  T
     SCC iter.                  ...        0 min,  0.074 sec
     gradient                   ...        0 min,  0.069 sec
 * total energy  :   -99.2225266 Eh     change       -0.1586453E-02 Eh
   gradient norm :     0.0279748 Eh/α   predicted    -0.1089290E-02 ( -31.34%)
   displ. norm   :     0.2621553 α      lambda       -0.2460267E-02
   maximum displ.:     0.0944797 α      in ANC's #11, #23, #13, ...
 * RMSD in coord.:     0.5997242 α      energy gain  -0.1105381E+01 Eh

generating ANC from model Hessian ...
Using Lindh-Hessian (1995)
 Shifting diagonal of input Hessian by    1.0186822573357783E-002
 Lowest  eigenvalues of input Hessian
    0.010000    0.010040    0.000000    0.000000    0.000000    0.000000
    0.000000    0.000000    0.010239    0.010260    0.010345    0.010462
    0.010510    0.010606    0.010937    0.011056    0.011299    0.011386
 Highest eigenvalues
    1.916932    1.922756    2.036459    2.046429    2.180614    2.183965


........................................................................
.............................. CYCLE   21 ..............................
........................................................................

 iter      E             dE          RMSdq      gap      omega  full diag
   1   -100.5458342 -0.100546E+03  0.671E-02    0.02       0.0  T
   2   -100.5446610  0.117319E-02  0.100E-01    0.02       1.0  T
   3   -100.5440932  0.567780E-03  0.120E-01    0.02       1.0  T
   4   -100.5455893 -0.149610E-02  0.489E-02    0.02       1.0  T
   5   -100.5458587 -0.269399E-03  0.118E-02    0.02       1.0  T
   6   -100.5458711 -0.124189E-04  0.392E-03    0.02       3.0  T
   7   -100.5458727 -0.154646E-05  0.163E-03    0.02       7.2  T
   8   -100.5458731 -0.399212E-06  0.357E-04    0.02      33.0  T
   9   -100.5458731  0.117086E-08  0.276E-04    0.02      42.7  T
     SCC iter.                  ...        0 min,  0.073 sec
     gradient                   ...        0 min,  0.069 sec
 * total energy  :   -99.2244022 Eh     change       -0.1875592E-02 Eh
   gradient norm :     0.0308541 Eh/α   predicted     0.0000000E+00 (-100.00%)
   displ. norm   :     0.4738237 α      lambda       -0.6129648E-02
   maximum displ.:     0.2093764 α      in ANC's #13, #15, #11, ...

........................................................................
.............................. CYCLE   22 ..............................
........................................................................

 iter      E             dE          RMSdq      gap      omega  full diag
   1   -100.5489639 -0.100549E+03  0.247E-01    0.05       0.0  T
   2   -100.5476160  0.134791E-02  0.149E-01    0.02       1.0  T
   3   -100.4707083  0.769077E-01  0.757E-01    0.04       1.0  T
   4   -100.5493656 -0.786574E-01  0.327E-02    0.03       1.0  T
   5   -100.5492099  0.155706E-03  0.461E-02    0.03       1.0  T
   6   -100.5494113 -0.201401E-03  0.119E-02    0.03       1.0  T
   7   -100.5494266 -0.152887E-04  0.540E-03    0.03       2.2  T
   8   -100.5494316 -0.492800E-05  0.854E-04    0.03      13.8  T
   9   -100.5494316 -0.138875E-07  0.565E-04    0.03      20.9  T
  10   -100.5494316 -0.105243E-07  0.322E-04    0.03      36.6  T
     SCC iter.                  ...        0 min,  0.081 sec
     gradient                   ...        0 min,  0.069 sec
 * total energy  :   -99.2294768 Eh     change       -0.5074593E-02 Eh
   gradient norm :     0.0186770 Eh/α   predicted    -0.3752930E-02 ( -26.04%)
   displ. norm   :     0.7170693 α      lambda       -0.6252544E-02
   maximum displ.:     0.3391096 α      in ANC's #13, #15, #20, ...

........................................................................
.............................. CYCLE   23 ..............................
........................................................................

 iter      E             dE          RMSdq      gap      omega  full diag
   1   -100.5517644 -0.100552E+03  0.229E-01    0.07       0.0  T
   2   -100.5510597  0.704686E-03  0.129E-01    0.04       1.0  T
   3   -100.4954624  0.555973E-01  0.634E-01    0.06       1.0  T
   4   -100.5513914 -0.559291E-01  0.938E-02    0.05       1.0  T
   5   -100.5520355 -0.644113E-03  0.386E-02    0.05       1.0  T
   6   -100.5521526 -0.117093E-03  0.134E-02    0.05       1.0  T
   7   -100.5521730 -0.203481E-04  0.651E-03    0.05       1.8  T
   8   -100.5521798 -0.679273E-05  0.105E-03    0.05      11.3  T
   9   -100.5521798 -0.536277E-07  0.526E-04    0.05      22.4  T
  10   -100.5521798 -0.684902E-08  0.322E-04    0.05      36.6  T
     SCC iter.                  ...        0 min,  0.081 sec
     gradient                   ...        0 min,  0.069 sec
 * total energy  :   -99.2345668 Eh     change       -0.5090018E-02 Eh
   gradient norm :     0.0171415 Eh/α   predicted    -0.4733766E-02 (  -7.00%)
   displ. norm   :     0.7348901 α      lambda       -0.4717991E-02
   maximum displ.:     0.3643275 α      in ANC's #15, #13, #20, ...

........................................................................
.............................. CYCLE   24 ..............................
........................................................................

 iter      E             dE          RMSdq      gap      omega  full diag
   1   -100.5572879 -0.100557E+03  0.139E-01    0.11       0.0  T
   2   -100.5557450  0.154287E-02  0.123E-01    0.08       1.0  T
   3   -100.5374533  0.182917E-01  0.387E-01    0.10       1.0  T
   4   -100.5564625 -0.190092E-01  0.104E-01    0.09       1.0  T
   5   -100.5574417 -0.979136E-03  0.267E-02    0.09       1.0  T
   6   -100.5574675 -0.258129E-04  0.159E-02    0.09       1.0  T
   7   -100.5574953 -0.278278E-04  0.722E-03    0.09       1.6  T
   8   -100.5575027 -0.735240E-05  0.844E-04    0.09      14.0  T
   9   -100.5575027 -0.263850E-07  0.438E-04    0.09      26.9  T
  10   -100.5575027 -0.801062E-08  0.234E-04    0.09      50.3  T
     SCC iter.                  ...        0 min,  0.081 sec
     gradient                   ...        0 min,  0.069 sec
 * total energy  :   -99.2385574 Eh     change       -0.3990575E-02 Eh
   gradient norm :     0.0167809 Eh/α   predicted    -0.3633003E-02 (  -8.96%)
   displ. norm   :     0.8167160 α      lambda       -0.4718897E-02
   maximum displ.:     0.3816642 α      in ANC's #13, #15, #11, ...

........................................................................
.............................. CYCLE   25 ..............................
........................................................................

 iter      E             dE          RMSdq      gap      omega  full diag
   1   -100.5545879 -0.100555E+03  0.300E-01    0.26       0.0  T
   2   -100.5035929  0.509950E-01  0.627E-01    0.21       1.0  T
   3   -100.5194454 -0.158525E-01  0.579E-01    0.05       1.0  T
   4   -100.5534873 -0.340420E-01  0.157E-01    0.18       1.0  T
   5   -100.5560796 -0.259224E-02  0.875E-02    0.18       1.0  T
   6   -100.5565613 -0.481679E-03  0.418E-02    0.17       1.0  T
   7   -100.5567192 -0.157973E-03  0.155E-02    0.18       1.0  T
   8   -100.5567391 -0.198762E-04  0.627E-03    0.18       1.9  T
   9   -100.5567434 -0.424819E-05  0.190E-03    0.18       6.2  T
  10   -100.5567437 -0.356107E-06  0.698E-04    0.18      16.9  T
  11   -100.5567438 -0.483116E-07  0.228E-04    0.18      51.7  T
     SCC iter.                  ...        0 min,  0.088 sec
     gradient                   ...        0 min,  0.069 sec
 * total energy  :   -99.2408865 Eh     change       -0.2329146E-02 Eh
   gradient norm :     0.0458209 Eh/α   predicted    -0.3933268E-02 (  68.87%)
   displ. norm   :     0.5461903 α      lambda       -0.6142830E-02
   maximum displ.:     0.2606923 α      in ANC's #15, #10, #13, ...

........................................................................
.............................. CYCLE   26 ..............................
........................................................................

 iter      E             dE          RMSdq      gap      omega  full diag
   1   -100.5715624 -0.100572E+03  0.205E-01    0.32       0.0  T
   2   -100.5706397  0.922638E-03  0.109E-01    0.24       1.0  T
   3   -100.5441097  0.265301E-01  0.471E-01    0.31       1.0  T
   4   -100.5707310 -0.266213E-01  0.128E-01    0.28       1.0  T
   5   -100.5718687 -0.113776E-02  0.692E-02    0.27       1.0  T
   6   -100.5721715 -0.302818E-03  0.314E-02    0.26       1.0  T
   7   -100.5722412 -0.697108E-04  0.179E-02    0.26       1.0  T
   8   -100.5722747 -0.334921E-04  0.486E-03    0.26       2.4  T
   9   -100.5722770 -0.223750E-05  0.224E-03    0.26       5.3  T
  10   -100.5722776 -0.603509E-06  0.460E-04    0.26      25.6  T
  11   -100.5722776 -0.174569E-07  0.146E-04    0.26      80.8  T
     SCC iter.                  ...        0 min,  0.088 sec
     gradient                   ...        0 min,  0.069 sec
 * total energy  :   -99.2444013 Eh     change       -0.3514744E-02 Eh
   gradient norm :     0.0214686 Eh/α   predicted    -0.3987692E-02 (  13.46%)
   displ. norm   :     0.6797626 α      lambda       -0.2655989E-02
   maximum displ.:     0.3149035 α      in ANC's #15, #13, #10, ...

........................................................................
.............................. CYCLE   27 ..............................
........................................................................

 iter      E             dE          RMSdq      gap      omega  full diag
   1   -100.5651661 -0.100565E+03  0.282E-01    0.43       0.0  T
   2   -100.5043380  0.608281E-01  0.718E-01    0.47       1.0  T
   3   -100.5624090 -0.580710E-01  0.265E-01    0.28       1.0  T
   4   -100.5694698 -0.706084E-02  0.108E-01    0.47       1.0  T
   5   -100.5699087 -0.438810E-03  0.505E-02    0.40       1.0  T
   6   -100.5701789 -0.270235E-03  0.268E-02    0.41       1.0  T
   7   -100.5701431  0.358132E-04  0.265E-02    0.42       1.0  T
   8   -100.5702385 -0.953784E-04  0.389E-03    0.42       3.0  T
   9   -100.5702403 -0.184349E-05  0.168E-03    0.42       7.0  T
  10   -100.5702404 -0.101918E-06  0.100E-03    0.42      11.8  T
  11   -100.5702405 -0.116641E-06  0.265E-04    0.42      44.5  T
  12   -100.5702405 -0.573839E-08  0.102E-04    0.42     115.2  T
     SCC iter.                  ...        0 min,  0.096 sec
     gradient                   ...        0 min,  0.069 sec
 * total energy  :   -99.2464397 Eh     change       -0.2038478E-02 Eh
   gradient norm :     0.0252246 Eh/α   predicted    -0.1941633E-02 (  -4.75%)
   displ. norm   :     0.5637192 α      lambda       -0.2637290E-02
   maximum displ.:     0.2049636 α      in ANC's #9, #15, #10, ...

........................................................................
.............................. CYCLE   28 ..............................
........................................................................

 iter      E             dE          RMSdq      gap      omega  full diag
   1   -100.5637808 -0.100564E+03  0.360E-01    0.51       0.0  T
   2   -100.5378099  0.259709E-01  0.515E-01    0.60       1.0  T
   3   -100.5151903  0.226196E-01  0.688E-01    0.05       1.0  T
   4   -100.5683959 -0.532056E-01  0.185E-01    0.61       1.0  T
   5   -100.5708611 -0.246513E-02  0.339E-02    0.49       1.0  T
   6   -100.5709248 -0.637019E-04  0.216E-02    0.49       1.0  T
   7   -100.5709016  0.231720E-04  0.204E-02    0.49       1.0  T
   8   -100.5709585 -0.568924E-04  0.639E-03    0.50       1.8  T
   9   -100.5709595 -0.105844E-05  0.413E-03    0.50       2.9  T
  10   -100.5709615 -0.197697E-05  0.718E-04    0.50      16.4  T
  11   -100.5709616 -0.421433E-07  0.290E-04    0.50      40.7  T
  12   -100.5709616 -0.446970E-08  0.860E-05    0.50     137.0  T
     SCC iter.                  ...        0 min,  0.096 sec
     gradient                   ...        0 min,  0.069 sec
 * total energy  :   -99.2488649 Eh     change       -0.2425145E-02 Eh
   gradient norm :     0.0307412 Eh/α   predicted    -0.1737689E-02 ( -28.35%)
   displ. norm   :     0.8191880 α      lambda       -0.5301185E-02
   maximum displ.:     0.2897505 α      in ANC's #9, #10, #1, ...

........................................................................
.............................. CYCLE   29 ..............................
........................................................................

 iter      E             dE          RMSdq      gap      omega  full diag
   1   -100.5535519 -0.100554E+03  0.720E-01    0.71       0.0  T
   2   -100.5322393  0.213126E-01  0.671E-01    0.43       1.0  T
   3   -100.5699956 -0.377563E-01  0.381E-01    0.80       1.0  T
   4   -100.5522766  0.177190E-01  0.442E-01    0.30       1.0  T
   5   -100.5762304 -0.239538E-01  0.169E-01    0.70       1.0  T
   6   -100.5786581 -0.242766E-02  0.581E-02    0.63       1.0  T
   7   -100.5789601 -0.302044E-03  0.173E-02    0.60       1.0  T
   8   -100.5789685 -0.839379E-05  0.120E-02    0.60       1.0  T
   9   -100.5789822 -0.136571E-04  0.585E-03    0.60       2.0  T
  10   -100.5789856 -0.344497E-05  0.141E-03    0.60       8.3  T
  11   -100.5789858 -0.187646E-06  0.370E-04    0.60      31.9  T
  12   -100.5789858 -0.644364E-08  0.202E-04    0.60      58.2  T
     SCC iter.                  ...        0 min,  0.096 sec
     gradient                   ...        0 min,  0.069 sec
 * total energy  :   -99.2508891 Eh     change       -0.2024240E-02 Eh
   gradient norm :     0.0553246 Eh/α   predicted    -0.4429337E-02 ( 118.81%)
   displ. norm   :     0.4823111 α      lambda       -0.8331262E-02
   maximum displ.:     0.1967882 α      in ANC's #13, #15, #8, ...

........................................................................
.............................. CYCLE   30 ..............................
........................................................................

 iter      E             dE          RMSdq      gap      omega  full diag
   1   -100.5685299 -0.100569E+03  0.404E-01    0.44       0.0  T
   2   -100.5558766  0.126533E-01  0.455E-01    0.48       1.0  T
   3   -100.5698550 -0.139784E-01  0.283E-01    0.70       1.0  T
   4   -100.5689206  0.934405E-03  0.321E-01    0.31       1.0  T
   5   -100.5767282 -0.780763E-02  0.107E-01    0.57       1.0  T
   6   -100.5784395 -0.171131E-02  0.439E-02    0.53       1.0  T
   7   -100.5785525 -0.113028E-03  0.190E-02    0.53       1.0  T
   8   -100.5785913 -0.387357E-04  0.590E-03    0.53       2.0  T
   9   -100.5785936 -0.238243E-05  0.255E-03    0.53       4.6  T
  10   -100.5785943 -0.609325E-06  0.866E-04    0.52      13.6  T
  11   -100.5785943 -0.728645E-07  0.305E-04    0.52      38.7  T
     SCC iter.                  ...        0 min,  0.089 sec
     gradient                   ...        0 min,  0.069 sec
 * total energy  :   -99.2511133 Eh     change       -0.2241732E-03 Eh
   gradient norm :     0.0503492 Eh/α   predicted    -0.5134672E-02 (2190.49%)
   displ. norm   :     0.3791736 α      lambda       -0.5237091E-02
   maximum displ.:     0.1710388 α      in ANC's #13, #15, #31, ...

........................................................................
.............................. CYCLE   31 ..............................
........................................................................

 iter      E             dE          RMSdq      gap      omega  full diag
   1   -100.5727457 -0.100573E+03  0.152E-01    0.49       0.0  T
   2   -100.5494304  0.233154E-01  0.445E-01    0.87       1.0  T
   3   -100.5733656 -0.239352E-01  0.882E-02    0.50       1.0  T
   4   -100.5731261  0.239433E-03  0.686E-02    0.52       1.0  T
   5   -100.5737236 -0.597409E-03  0.281E-02    0.53       1.0  T
   6   -100.5737689 -0.453114E-04  0.185E-02    0.53       1.0  T
   7   -100.5737950 -0.261335E-04  0.534E-03    0.54       2.2  T
   8   -100.5737987 -0.368186E-05  0.171E-03    0.54       6.9  T
   9   -100.5737990 -0.301251E-06  0.640E-04    0.54      18.4  T
  10   -100.5737990 -0.299337E-07  0.329E-04    0.54      35.8  T
     SCC iter.                  ...        0 min,  0.081 sec
     gradient                   ...        0 min,  0.069 sec
 * total energy  :   -99.2531022 Eh     change       -0.1988871E-02 Eh
   gradient norm :     0.0260643 Eh/α   predicted    -0.2995015E-02 (  50.59%)
   displ. norm   :     0.3770214 α      lambda       -0.4089210E-02
   maximum displ.:     0.1558890 α      in ANC's #31, #13, #20, ...

........................................................................
.............................. CYCLE   32 ..............................
........................................................................

 iter      E             dE          RMSdq      gap      omega  full diag
   1   -100.5769650 -0.100577E+03  0.313E-01    0.69       0.0  T
   2   -100.5474821  0.294829E-01  0.551E-01    0.20       1.0  T
   3   -100.5502055 -0.272341E-02  0.525E-01    0.92       1.0  T
   4   -100.5790867 -0.288812E-01  0.182E-01    0.68       1.0  T
   5   -100.5808070 -0.172029E-02  0.562E-02    0.58       1.0  T
   6   -100.5812618 -0.454790E-03  0.154E-02    0.58       1.0  T
   7   -100.5812744 -0.125332E-04  0.777E-03    0.58       1.5  T
   8   -100.5812786 -0.424668E-05  0.387E-03    0.58       3.0  T
   9   -100.5812803 -0.167291E-05  0.167E-03    0.58       7.1  T
  10   -100.5812806 -0.285708E-06  0.440E-04    0.58      26.8  T
  11   -100.5812806 -0.174455E-07  0.129E-04    0.58      91.1  T
     SCC iter.                  ...        0 min,  0.088 sec
     gradient                   ...        0 min,  0.069 sec
 * total energy  :   -99.2541884 Eh     change       -0.1086248E-02 Eh
   gradient norm :     0.0390667 Eh/α   predicted    -0.2335248E-02 ( 114.98%)
   displ. norm   :     0.1699319 α      lambda       -0.2540045E-02
   maximum displ.:     0.0499295 α      in ANC's #11, #14, #2, ...

........................................................................
.............................. CYCLE   33 ..............................
........................................................................

 iter      E             dE          RMSdq      gap      omega  full diag
   1   -100.5810754 -0.100581E+03  0.793E-02    0.55       0.0  T
   2   -100.5807798  0.295655E-03  0.674E-02    0.55       1.0  T
   3   -100.5800877  0.692063E-03  0.889E-02    0.62       1.0  T
   4   -100.5802724 -0.184681E-03  0.979E-02    0.49       1.0  T
   5   -100.5811681 -0.895737E-03  0.259E-02    0.57       1.0  T
   6   -100.5812161 -0.479837E-04  0.115E-02    0.57       1.0  T
   7   -100.5812267 -0.106258E-04  0.335E-03    0.56       3.5  T
   8   -100.5812280 -0.126266E-05  0.101E-03    0.56      11.6  T
   9   -100.5812281 -0.833922E-07  0.405E-04    0.56      29.1  T
  10   -100.5812281 -0.109677E-07  0.202E-04    0.56      58.4  T
     SCC iter.                  ...        0 min,  0.081 sec
     gradient                   ...        0 min,  0.069 sec
 * total energy  :   -99.2556195 Eh     change       -0.1431084E-02 Eh
   gradient norm :     0.0190620 Eh/α   predicted    -0.1306700E-02 (  -8.69%)
   displ. norm   :     0.2380972 α      lambda       -0.1224702E-02
   maximum displ.:     0.1196200 α      in ANC's #2, #31, #12, ...

........................................................................
.............................. CYCLE   34 ..............................
........................................................................

 iter      E             dE          RMSdq      gap      omega  full diag
   1   -100.5790498 -0.100579E+03  0.127E-01    0.53       0.0  T
   2   -100.5786396  0.410221E-03  0.962E-02    0.52       1.0  T
   3   -100.5773190  0.132055E-02  0.134E-01    0.62       1.0  T
   4   -100.5767759  0.543137E-03  0.158E-01    0.43       1.0  T
   5   -100.5793228 -0.254693E-02  0.143E-02    0.55       1.0  T
   6   -100.5792750  0.477996E-04  0.234E-02    0.54       1.0  T
   7   -100.5793432 -0.681885E-04  0.489E-03    0.54       2.4  T
   8   -100.5793449 -0.170245E-05  0.191E-03    0.54       6.2  T
   9   -100.5793451 -0.179714E-06  0.764E-04    0.54      15.4  T
  10   -100.5793452 -0.558379E-07  0.316E-04    0.55      37.3  T
     SCC iter.                  ...        0 min,  0.081 sec
     gradient                   ...        0 min,  0.069 sec
 * total energy  :   -99.2562469 Eh     change       -0.6273625E-03 Eh
   gradient norm :     0.0213036 Eh/α   predicted    -0.6470641E-03 (   3.14%)
   displ. norm   :     0.3589042 α      lambda       -0.1586453E-02
   maximum displ.:     0.1661342 α      in ANC's #31, #1, #9, ...

........................................................................
.............................. CYCLE   35 ..............................
........................................................................

 iter      E             dE          RMSdq      gap      omega  full diag
   1   -100.5821101 -0.100582E+03  0.140E-01    0.58       0.0  T
   2   -100.5707027  0.114074E-01  0.314E-01    0.31       1.0  T
   3   -100.5783075 -0.760478E-02  0.205E-01    0.68       1.0  T
   4   -100.5818879 -0.358044E-02  0.107E-01    0.56       1.0  T
   5   -100.5826516 -0.763736E-03  0.318E-02    0.56       1.0  T
   6   -100.5826600 -0.837822E-05  0.263E-02    0.56       1.0  T
   7   -100.5827388 -0.787592E-04  0.339E-03    0.54       3.5  T
   8   -100.5827397 -0.947117E-06  0.134E-03    0.54       8.8  T
   9   -100.5827399 -0.135734E-06  0.672E-04    0.54      17.5  T
  10   -100.5827399 -0.434652E-07  0.264E-04    0.54      44.7  T
     SCC iter.                  ...        0 min,  0.081 sec
     gradient                   ...        0 min,  0.069 sec
 * total energy  :   -99.2572099 Eh     change       -0.9630387E-03 Eh
   gradient norm :     0.0068465 Eh/α   predicted    -0.8954070E-03 (  -7.02%)
   displ. norm   :     0.3006505 α      lambda       -0.6689336E-03
   maximum displ.:     0.1495484 α      in ANC's #31, #4, #2, ...

........................................................................
.............................. CYCLE   36 ..............................
........................................................................

 iter      E             dE          RMSdq      gap      omega  full diag
   1   -100.5828071 -0.100583E+03  0.928E-02    0.55       0.0  T
   2   -100.5792491  0.355795E-02  0.183E-01    0.41       1.0  T
   3   -100.5824137 -0.316451E-02  0.854E-02    0.59       1.0  T
   4   -100.5826526 -0.238896E-03  0.612E-02    0.52       1.0  T
   5   -100.5830235 -0.370923E-03  0.125E-02    0.54       1.0  T
   6   -100.5830188  0.468396E-05  0.106E-02    0.54       1.1  T
   7   -100.5830260 -0.719477E-05  0.710E-03    0.54       1.7  T
   8   -100.5830332 -0.717245E-05  0.124E-03    0.54       9.5  T
   9   -100.5830332 -0.915636E-07  0.545E-04    0.54      21.6  T
  10   -100.5830333 -0.252616E-07  0.222E-04    0.54      53.0  T
     SCC iter.                  ...        0 min,  0.081 sec
     gradient                   ...        0 min,  0.069 sec
 * total energy  :   -99.2575821 Eh     change       -0.3721469E-03 Eh
   gradient norm :     0.0097051 Eh/α   predicted    -0.3647033E-03 (  -2.00%)
   displ. norm   :     0.2069557 α      lambda       -0.3224714E-03
   maximum displ.:     0.0821242 α      in ANC's #6, #4, #9, ...

........................................................................
.............................. CYCLE   37 ..............................
........................................................................

 iter      E             dE          RMSdq      gap      omega  full diag
   1   -100.5879980 -0.100588E+03  0.605E-02    0.55       0.0  T
   2   -100.5858594  0.213860E-02  0.139E-01    0.43       1.0  T
   3   -100.5875602 -0.170084E-02  0.725E-02    0.59       1.0  T
   4   -100.5879457 -0.385538E-03  0.444E-02    0.54       1.0  T
   5   -100.5881038 -0.158089E-03  0.888E-03    0.54       1.3  T
   6   -100.5880949  0.896090E-05  0.104E-02    0.54       1.1  T
   7   -100.5881093 -0.144624E-04  0.184E-03    0.54       6.4  T
   8   -100.5881097 -0.397071E-06  0.753E-04    0.54      15.7  T
   9   -100.5881098 -0.335603E-07  0.366E-04    0.54      32.2  T
     SCC iter.                  ...        0 min,  0.073 sec
     gradient                   ...        0 min,  0.069 sec
 * total energy  :   -99.2577050 Eh     change       -0.1229952E-03 Eh
   gradient norm :     0.0108966 Eh/α   predicted    -0.1681431E-03 (  36.71%)
   displ. norm   :     0.1420352 α      lambda       -0.2637860E-03
   maximum displ.:     0.0560843 α      in ANC's #4, #12, #7, ...

........................................................................
.............................. CYCLE   38 ..............................
........................................................................

 iter      E             dE          RMSdq      gap      omega  full diag
   1   -100.5885301 -0.100589E+03  0.356E-02    0.54       0.0  T
   2   -100.5883649  0.165206E-03  0.464E-02    0.54       1.0  T
   3   -100.5885487 -0.183799E-03  0.223E-02    0.54       1.0  T
   4   -100.5884286  0.120154E-03  0.393E-02    0.51       1.0  T
   5   -100.5885637 -0.135123E-03  0.102E-02    0.54       1.2  T
   6   -100.5885802 -0.165328E-04  0.246E-03    0.54       4.8  T
   7   -100.5885808 -0.578843E-06  0.113E-03    0.54      10.4  T
   8   -100.5885809 -0.971815E-07  0.446E-04    0.54      26.5  T
   9   -100.5885809 -0.129400E-07  0.237E-04    0.54      49.8  T
     SCC iter.                  ...        0 min,  0.073 sec
     gradient                   ...        0 min,  0.070 sec
 * total energy  :   -99.2578438 Eh     change       -0.1387830E-03 Eh
   gradient norm :     0.0083657 Eh/α   predicted    -0.1345588E-03 (  -3.04%)
   displ. norm   :     0.2747201 α      lambda       -0.4146740E-03
   maximum displ.:     0.1040764 α      in ANC's #4, #6, #2, ...

........................................................................
.............................. CYCLE   39 ..............................
........................................................................

 iter      E             dE          RMSdq      gap      omega  full diag
   1   -100.5850579 -0.100585E+03  0.638E-02    0.53       0.0  T
   2   -100.5845332  0.524744E-03  0.711E-02    0.59       1.0  T
   3   -100.5835693  0.963952E-03  0.117E-01    0.45       1.0  T
   4   -100.5849776 -0.140836E-02  0.289E-02    0.53       1.0  T
   5   -100.5850939 -0.116343E-03  0.716E-03    0.54       1.6  T
   6   -100.5850927  0.123869E-05  0.721E-03    0.54       1.6  T
   7   -100.5850967 -0.394038E-05  0.248E-03    0.54       4.7  T
   8   -100.5850973 -0.685870E-06  0.112E-03    0.54      10.5  T
   9   -100.5850974 -0.105124E-06  0.395E-04    0.54      29.8  T
  10   -100.5850975 -0.141136E-07  0.125E-04    0.54      94.1  T
     SCC iter.                  ...        0 min,  0.081 sec
     gradient                   ...        0 min,  0.069 sec
 * total energy  :   -99.2581017 Eh     change       -0.2578915E-03 Eh
   gradient norm :     0.0084247 Eh/α   predicted    -0.2229883E-03 ( -13.53%)
   displ. norm   :     0.3543625 α      lambda       -0.3882450E-03
   maximum displ.:     0.1494464 α      in ANC's #4, #6, #9, ...

........................................................................
.............................. CYCLE   40 ..............................
........................................................................

 iter      E             dE          RMSdq      gap      omega  full diag
   1   -100.5865193 -0.100587E+03  0.549E-02    0.54       0.0  T
   2   -100.5859127  0.606614E-03  0.766E-02    0.59       1.0  T
   3   -100.5860755 -0.162870E-03  0.680E-02    0.49       1.0  T
   4   -100.5864254 -0.349830E-03  0.299E-02    0.54       1.0  T
   5   -100.5865547 -0.129390E-03  0.711E-03    0.54       1.7  T
   6   -100.5865538  0.972857E-06  0.750E-03    0.54       1.6  T
   7   -100.5865589 -0.511996E-05  0.214E-03    0.54       5.5  T
   8   -100.5865594 -0.463769E-06  0.742E-04    0.54      15.9  T
   9   -100.5865594 -0.517949E-07  0.242E-04    0.54      48.7  T
     SCC iter.                  ...        0 min,  0.073 sec
     gradient                   ...        0 min,  0.070 sec
 * total energy  :   -99.2583799 Eh     change       -0.2781518E-03 Eh
   gradient norm :     0.0085992 Eh/α   predicted    -0.2185039E-03 ( -21.44%)
   displ. norm   :     0.5673218 α      lambda       -0.5143512E-03
   maximum displ.:     0.2511806 α      in ANC's #6, #4, #9, ...

........................................................................
.............................. CYCLE   41 ..............................
........................................................................

 iter      E             dE          RMSdq      gap      omega  full diag
   1   -100.5852488 -0.100585E+03  0.955E-02    0.53       0.0  T
   2   -100.5834409  0.180785E-02  0.128E-01    0.64       1.0  T
   3   -100.5831922  0.248748E-03  0.141E-01    0.45       1.0  T
   4   -100.5849664 -0.177427E-02  0.525E-02    0.55       1.0  T
   5   -100.5853641 -0.397648E-03  0.120E-02    0.55       1.0  T
   6   -100.5853603  0.375423E-05  0.138E-02    0.55       1.0  T
   7   -100.5853763 -0.159446E-04  0.308E-03    0.55       3.8  T
   8   -100.5853773 -0.105329E-05  0.162E-03    0.55       7.3  T
   9   -100.5853775 -0.198091E-06  0.493E-04    0.55      23.9  T
  10   -100.5853775 -0.188364E-07  0.167E-04    0.55      70.5  T
     SCC iter.                  ...        0 min,  0.081 sec
     gradient                   ...        0 min,  0.069 sec
 * total energy  :   -99.2587503 Eh     change       -0.3704006E-03 Eh
   gradient norm :     0.0131712 Eh/α   predicted    -0.3399485E-03 (  -8.22%)
   displ. norm   :     0.5396440 α      lambda       -0.6148565E-03
   maximum displ.:     0.2620556 α      in ANC's #6, #4, #9, ...

........................................................................
.............................. CYCLE   42 ..............................
........................................................................

 iter      E             dE          RMSdq      gap      omega  full diag
   1   -100.5882811 -0.100588E+03  0.596E-02    0.56       0.0  T
   2   -100.5879685  0.312593E-03  0.673E-02    0.58       1.0  T
   3   -100.5878880  0.805537E-04  0.632E-02    0.51       1.0  T
   4   -100.5877130  0.174945E-03  0.822E-02    0.61       1.0  T
   5   -100.5883321 -0.619037E-03  0.114E-02    0.55       1.0  T
   6   -100.5883468 -0.147611E-04  0.561E-03    0.55       2.1  T
   7   -100.5883490 -0.215482E-05  0.280E-03    0.55       4.2  T
   8   -100.5883502 -0.123365E-05  0.552E-04    0.55      21.3  T
   9   -100.5883502 -0.184769E-07  0.294E-04    0.55      40.0  T
  10   -100.5883502 -0.394101E-08  0.164E-04    0.55      71.9  T
     SCC iter.                  ...        0 min,  0.081 sec
     gradient                   ...        0 min,  0.069 sec
 * total energy  :   -99.2590876 Eh     change       -0.3373760E-03 Eh
   gradient norm :     0.0092944 Eh/α   predicted    -0.3969590E-03 (  17.66%)
   displ. norm   :     0.5915816 α      lambda       -0.5320802E-03
   maximum displ.:     0.2682365 α      in ANC's #4, #6, #9, ...
 * RMSD in coord.:     0.7668085 α      energy gain  -0.3656105E-01 Eh

generating ANC from model Hessian ...
Using Lindh-Hessian (1995)
 Shifting diagonal of input Hessian by    9.9410089314622037E-003
 Lowest  eigenvalues of input Hessian
    0.000000    0.000000    0.000000    0.000000    0.000000    0.000000
    0.010000    0.010028    0.010092    0.010153    0.010241    0.010338
    0.010686    0.010766    0.011020    0.011245    0.011717    0.012196
 Highest eigenvalues
    1.920992    1.927707    2.043085    2.044496    2.180114    2.185883


........................................................................
.............................. CYCLE   43 ..............................
........................................................................

 iter      E             dE          RMSdq      gap      omega  full diag
   1   -100.5850833 -0.100585E+03  0.880E-02    0.54       0.0  T
   2   -100.5833876  0.169568E-02  0.125E-01    0.64       1.0  T
   3   -100.5833379  0.497240E-04  0.131E-01    0.46       1.0  T
   4   -100.5849263 -0.158846E-02  0.564E-02    0.56       1.0  T
   5   -100.5851842 -0.257875E-03  0.998E-03    0.55       1.2  T
   6   -100.5851801  0.406217E-05  0.953E-03    0.55       1.2  T
   7   -100.5851920 -0.118332E-04  0.450E-03    0.55       2.6  T
   8   -100.5851941 -0.213879E-05  0.144E-03    0.55       8.2  T
   9   -100.5851943 -0.166366E-06  0.418E-04    0.55      28.2  T
  10   -100.5851943 -0.154259E-07  0.139E-04    0.55      84.5  T
     SCC iter.                  ...        0 min,  0.081 sec
     gradient                   ...        0 min,  0.069 sec
 * total energy  :   -99.2594543 Eh     change       -0.3666338E-03 Eh
   gradient norm :     0.0106440 Eh/α   predicted     0.0000000E+00 (-100.00%)
   displ. norm   :     0.1436295 α      lambda       -0.4074809E-03
   maximum displ.:     0.1007860 α      in ANC's #9, #7, #2, ...

........................................................................
.............................. CYCLE   44 ..............................
........................................................................

 iter      E             dE          RMSdq      gap      omega  full diag
   1   -100.5874702 -0.100587E+03  0.901E-02    0.55       0.0  T
   2   -100.5873006  0.169600E-03  0.604E-02    0.52       1.0  T
   3   -100.5843115  0.298919E-02  0.170E-01    0.67       1.0  T
   4   -100.5872490 -0.293753E-02  0.537E-02    0.52       1.0  T
   5   -100.5875335 -0.284500E-03  0.940E-03    0.56       1.3  T
   6   -100.5875226  0.109142E-04  0.115E-02    0.55       1.0  T
   7   -100.5875429 -0.203088E-04  0.151E-03    0.55       7.8  T
   8   -100.5875429 -0.676831E-07  0.812E-04    0.55      14.5  T
   9   -100.5875430 -0.558455E-07  0.245E-04    0.55      48.2  T
     SCC iter.                  ...        0 min,  0.073 sec
     gradient                   ...        0 min,  0.069 sec
 * total energy  :   -99.2597698 Eh     change       -0.3155490E-03 Eh
   gradient norm :     0.0064225 Eh/α   predicted    -0.2079443E-03 ( -34.10%)
   displ. norm   :     0.2546890 α      lambda       -0.4342064E-03
   maximum displ.:     0.1624067 α      in ANC's #9, #7, #2, ...

........................................................................
.............................. CYCLE   45 ..............................
........................................................................

 iter      E             dE          RMSdq      gap      omega  full diag
   1   -100.5881104 -0.100588E+03  0.125E-01    0.54       0.0  T
   2   -100.5880578  0.526296E-04  0.637E-02    0.56       1.0  T
   3   -100.5854788  0.257894E-02  0.159E-01    0.45       1.0  T
   4   -100.5873564 -0.187754E-02  0.874E-02    0.61       1.0  T
   5   -100.5882220 -0.865618E-03  0.127E-02    0.54       1.0  T
   6   -100.5881898  0.321418E-04  0.166E-02    0.54       1.0  T
   7   -100.5882315 -0.416169E-04  0.282E-03    0.55       4.2  T
   8   -100.5882316 -0.168379E-06  0.162E-03    0.55       7.3  T
   9   -100.5882319 -0.295233E-06  0.368E-04    0.55      32.0  T
  10   -100.5882319 -0.125846E-07  0.124E-04    0.55      95.1  T
     SCC iter.                  ...        0 min,  0.081 sec
     gradient                   ...        0 min,  0.069 sec
 * total energy  :   -99.2600340 Eh     change       -0.2641713E-03 Eh
   gradient norm :     0.0139293 Eh/α   predicted    -0.2311861E-03 ( -12.49%)
   displ. norm   :     0.1983560 α      lambda       -0.3891762E-03
   maximum displ.:     0.0854521 α      in ANC's #2, #25, #9, ...

........................................................................
.............................. CYCLE   46 ..............................
........................................................................

 iter      E             dE          RMSdq      gap      omega  full diag
   1   -100.5905149 -0.100591E+03  0.466E-02    0.55       0.0  T
   2   -100.5903956  0.119304E-03  0.373E-02    0.52       1.0  T
   3   -100.5892425  0.115310E-02  0.104E-01    0.62       1.0  T
   4   -100.5904624 -0.121992E-02  0.226E-02    0.55       1.0  T
   5   -100.5905261 -0.637003E-04  0.607E-03    0.55       1.9  T
   6   -100.5905277 -0.155377E-05  0.384E-03    0.55       3.1  T
   7   -100.5905285 -0.806071E-06  0.163E-03    0.55       7.2  T
   8   -100.5905289 -0.367227E-06  0.424E-04    0.55      27.8  T
   9   -100.5905289 -0.174862E-07  0.155E-04    0.55      75.9  T
     SCC iter.                  ...        0 min,  0.073 sec
     gradient                   ...        0 min,  0.069 sec
 * total energy  :   -99.2603025 Eh     change       -0.2685423E-03 Eh
   gradient norm :     0.0079626 Eh/α   predicted    -0.2022448E-03 ( -24.69%)
   displ. norm   :     0.3823460 α      lambda       -0.4238767E-03
   maximum displ.:     0.1870051 α      in ANC's #9, #2, #7, ...

........................................................................
.............................. CYCLE   47 ..............................
........................................................................

 iter      E             dE          RMSdq      gap      omega  full diag
   1   -100.5880611 -0.100588E+03  0.127E-01    0.53       0.0  T
   2   -100.5875467  0.514494E-03  0.871E-02    0.59       1.0  T
   3   -100.5786864  0.886026E-02  0.288E-01    0.34       1.0  T
   4   -100.5878876 -0.920116E-02  0.583E-02    0.56       1.0  T
   5   -100.5881804 -0.292808E-03  0.110E-02    0.54       1.1  T
   6   -100.5881513  0.290269E-04  0.151E-02    0.54       1.0  T
   7   -100.5881860 -0.347025E-04  0.313E-03    0.54       3.8  T
   8   -100.5881863 -0.314347E-06  0.162E-03    0.54       7.3  T
   9   -100.5881867 -0.370571E-06  0.343E-04    0.54      34.4  T
  10   -100.5881867 -0.864938E-08  0.131E-04    0.54      89.8  T
     SCC iter.                  ...        0 min,  0.081 sec
     gradient                   ...        0 min,  0.069 sec
 * total energy  :   -99.2605641 Eh     change       -0.2615726E-03 Eh
   gradient norm :     0.0157289 Eh/α   predicted    -0.2429378E-03 (  -7.12%)
   displ. norm   :     0.2772936 α      lambda       -0.4952497E-03
   maximum displ.:     0.1463577 α      in ANC's #2, #5, #4, ...

........................................................................
.............................. CYCLE   48 ..............................
........................................................................

 iter      E             dE          RMSdq      gap      omega  full diag
   1   -100.5874450 -0.100587E+03  0.569E-02    0.55       0.0  T
   2   -100.5873559  0.891087E-04  0.392E-02    0.52       1.0  T
   3   -100.5857603  0.159557E-02  0.124E-01    0.64       1.0  T
   4   -100.5874127 -0.165236E-02  0.236E-02    0.54       1.0  T
   5   -100.5874615 -0.488060E-04  0.604E-03    0.55       2.0  T
   6   -100.5874539  0.753170E-05  0.792E-03    0.55       1.5  T
   7   -100.5874633 -0.935055E-05  0.141E-03    0.55       8.4  T
   8   -100.5874634 -0.121837E-06  0.689E-04    0.55      17.1  T
   9   -100.5874634 -0.367786E-07  0.212E-04    0.55      55.6  T
     SCC iter.                  ...        0 min,  0.073 sec
     gradient                   ...        0 min,  0.069 sec
 * total energy  :   -99.2608854 Eh     change       -0.3212628E-03 Eh
   gradient norm :     0.0061316 Eh/α   predicted    -0.2667195E-03 ( -16.98%)
   displ. norm   :     0.4134445 α      lambda       -0.3684892E-03
[...]
         :: HOMO-LUMO gap              0.566171302669 eV    ::
         ::.................................................::
         :: SCC energy              -100.595935560901 Eh    ::
         :: -> isotropic ES            0.111746374947 Eh    ::
         :: -> anisotropic ES          0.003374157637 Eh    ::
         :: -> anisotropic XC          0.042076246379 Eh    ::
         :: -> dispersion             -0.073941052520 Eh    ::
         :: repulsion energy           1.327275804199 Eh    ::
         :: add. restraining           0.000091347805 Eh    ::
         :: total charge               1.000000000328 e     ::
         :::::::::::::::::::::::::::::::::::::::::::::::::::::

           -------------------------------------------------
          |                Property Printout                |
           -------------------------------------------------

    * Orbital Energies and Occupations

         #    Occupation            Energy/Eh            Energy/eV
      -------------------------------------------------------------
         1        2.0000           -0.8144133             -22.1613
       ...           ...                  ...                  ...
        78        1.9978           -0.5351710             -14.5627
        79        1.9975           -0.5330427             -14.5048
        80        1.9969           -0.5293818             -14.4052
        81        1.9966           -0.5281014             -14.3704
        82        1.9951           -0.5222746             -14.2118
        83        1.9947           -0.5210774             -14.1792
        84        1.9734           -0.4953737             -13.4798
        85        1.9652           -0.4910500             -13.3622
        86        1.9547           -0.4867955             -13.2464
        87        1.8318           -0.4649968             -12.6532
        88        1.8146           -0.4633074             -12.6072
        89        1.6836           -0.4536558             -12.3446
        90        1.4755           -0.4435634             -12.0700 (HOMO)
        91        0.8610           -0.4227570             -11.5038 (LUMO)
        92        0.4688           -0.4084455             -11.1144
        93        0.0024           -0.3206559              -8.7255
        94        0.0020           -0.3176107              -8.6426
        95        0.0016           -0.3141788              -8.5492
        96        0.0014           -0.3119635              -8.4890
        97        0.0000           -0.1953116              -5.3147
        98        0.0000           -0.1896026              -5.1593
        99                         -0.1024221              -2.7870
       100                         -0.0805756              -2.1926
       101                         -0.0683497              -1.8599
       ...                                ...                  ...
       171                          0.5718909              15.5619
      -------------------------------------------------------------
                  HL-Gap            0.0208064 Eh            0.5662 eV
             Fermi-level           -0.4271865 Eh          -11.6243 eV

     #   Z          covCN         q      C6AA      α(0)
     1   7 N        1.714    -0.423    31.904     8.353
     2   6 C        2.946    -0.045    29.122     8.851
     3   6 C        3.916     0.015    20.261     6.398
     4   6 C        2.971     0.005    27.915     8.666
     5   6 C        2.919    -0.079    29.974     8.978
     6   6 C        2.862     0.133    25.085     8.209
     7   8 O        1.706    -0.222    17.682     5.677
     8   6 C        3.644     0.026    20.476     6.504
     9   6 C        2.864     0.134    25.071     8.207
    10   8 O        1.706    -0.219    17.633     5.670
    11   6 C        3.645     0.024    20.506     6.508
    12   6 C        2.913    -0.069    29.718     8.939
    13   6 C        2.921    -0.049    29.215     8.864
    14   6 C        3.844    -0.068    21.776     6.638
    15   6 C        3.832    -0.067    21.765     6.638
    16   6 C        3.815     0.038    19.930     6.354
    17   7 N        2.729    -0.099    23.183     7.151
    18   6 C        3.749    -0.006    20.756     6.498
    19   6 C        3.807    -0.070    21.842     6.653
    20   6 C        2.969     0.009    27.804     8.649
    21   6 C        2.921    -0.044    29.081     8.843
    22   6 C        2.913    -0.065    29.611     8.923
    23   6 C        2.864     0.136    25.026     8.200
    24   8 O        1.706    -0.213    17.540     5.655
    25   6 C        3.646     0.023    20.521     6.510
    26   6 C        2.862     0.136    25.023     8.199
    27   8 O        1.706    -0.217    17.603     5.665
    28   6 C        3.645     0.025    20.493     6.506
    29   6 C        2.919    -0.076    29.907     8.968
    30   6 C        3.697    -0.051    21.663     6.658
    31   6 C        3.851    -0.009    20.710     6.473
    32   6 C        3.414    -0.075    25.393     7.738
    33   6 C        3.756    -0.119    22.829     6.813
    34   1 H        0.926     0.051     2.304     2.374
    35   1 H        0.924     0.053     2.286     2.365
    36   1 H        0.925     0.084     1.935     2.175
    37   1 H        0.924     0.053     2.286     2.364
    38   1 H        0.924     0.058     2.224     2.332
    39   1 H        0.925     0.084     1.935     2.175
    40   1 H        0.924     0.056     2.249     2.345
    41   1 H        0.926     0.060     2.200     2.319
    42   1 H        0.926     0.056     2.243     2.342
    43   1 H        0.925     0.051     2.313     2.378
    44   1 H        0.925     0.049     2.336     2.390
    45   1 H        0.925     0.050     2.323     2.384
    46   1 H        0.925     0.046     2.372     2.408
    47   1 H        0.926     0.072     2.067     2.248
    48   1 H        0.923     0.075     2.032     2.229
    49   1 H        0.924     0.058     2.218     2.329
    50   1 H        0.924     0.054     2.271     2.357
    51   1 H        0.924     0.049     2.330     2.387
    52   1 H        0.924     0.052     2.298     2.370
    53   1 H        0.926     0.052     2.297     2.370
    54   1 H        0.926     0.062     2.178     2.308
    55   1 H        0.924     0.058     2.218     2.329
    56   1 H        0.924     0.060     2.204     2.321
    57   1 H        0.925     0.085     1.927     2.171
    58   1 H        0.925     0.084     1.934     2.175
    59   1 H        0.924     0.054     2.268     2.355
    60   1 H        0.924     0.056     2.242     2.341
    61   1 H        0.926     0.054     2.272     2.357
    62   1 H        0.924     0.045     2.384     2.415
    63   1 H        0.925     0.063     2.164     2.300
    64   1 H        0.924     0.061     2.182     2.310
    65   1 H        0.923     0.075     2.035     2.231
    66   1 H        1.427     0.204     1.072     1.617
    67   1 H        0.925     0.070     2.089     2.260
    68   1 H        0.925     0.078     2.001     2.212
    69   1 H        0.925     0.066     2.126     2.280
    70   1 H        0.925     0.047     2.356     2.401
    71   1 H        0.925     0.058     2.217     2.329
    72   1 H        0.860     0.140     1.472     1.900

 Mol. C6AA /au·bohr⁶  :      47158.656961
 Mol. C8AA /au·bohr⁸  :    1076857.092735
 Mol. α(0) /au        :        332.812386


Wiberg/Mayer (AO) data.
largest (>0.10) Wiberg bond orders for each atom

 ---------------------------------------------------------------------------
     #   Z sym  total        # sym  WBO       # sym  WBO       # sym  WBO
 ---------------------------------------------------------------------------
     1   7 N    1.851 --    72 H    0.973    66 H    0.625    32 C    0.205
     2   6 C    3.190 --     3 C    1.062    16 C    1.049    47 H    0.966
     3   6 C    3.979 --     2 C    1.062    14 C    0.964     4 C    0.943
                            31 C    0.920
     4   6 C    3.891 --    13 C    1.403     5 C    1.375     3 C    0.943
     5   6 C    3.953 --     6 C    1.392     4 C    1.375    34 H    0.957
     6   6 C    3.890 --     5 C    1.392     9 C    1.213     7 O    1.107
     7   8 O    2.253 --     6 C    1.107     8 C    0.977
     8   6 C    3.929 --     7 O    0.977    36 H    0.976    37 H    0.972
                            35 H    0.972
     9   6 C    3.888 --    12 C    1.381     6 C    1.213    10 O    1.114
    10   8 O    2.254 --     9 C    1.114    11 C    0.975
    11   6 C    3.926 --    39 H    0.976    10 O    0.975    40 H    0.972
                            38 H    0.972
    12   6 C    3.954 --    13 C    1.415     9 C    1.381    41 H    0.962
    13   6 C    3.937 --    12 C    1.415     4 C    1.403    42 H    0.957
    14   6 C    3.983 --    15 C    1.009    44 H    0.971    43 H    0.971
                             3 C    0.964
    15   6 C    3.961 --    14 C    1.009    46 H    0.977    45 H    0.974
                            16 C    0.953
    16   6 C    3.965 --     2 C    1.049    17 N    0.994    15 C    0.953
                            48 H    0.909
    17   7 N    3.122 --    18 C    1.021    30 C    1.017    16 C    0.994
    18   6 C    3.960 --    17 N    1.021    50 H    0.966    49 H    0.966
                            19 C    0.948
    19   6 C    3.961 --    20 C    1.019    51 H    0.971    52 H    0.968
                            18 C    0.948
    20   6 C    3.923 --    21 C    1.386    29 C    1.380    19 C    1.019
    21   6 C    3.924 --    22 C    1.427    20 C    1.386    53 H    0.967
    22   6 C    3.947 --    21 C    1.427    23 C    1.371    54 H    0.962
    23   6 C    3.868 --    22 C    1.371    26 C    1.207    24 O    1.119
    24   8 O    2.248 --    23 C    1.119    25 C    0.975
    25   6 C    3.924 --    57 H    0.976    24 O    0.975    55 H    0.971
                            56 H    0.970
    26   6 C    3.878 --    29 C    1.389    23 C    1.207    27 O    1.113
    27   8 O    2.249 --    26 C    1.113    28 C    0.976
    28   6 C    3.927 --    27 O    0.976    58 H    0.976    59 H    0.972
                            60 H    0.972
    29   6 C    3.947 --    26 C    1.389    20 C    1.380    61 H    0.961
    30   6 C    3.961 --    17 N    1.017    64 H    0.973    63 H    0.972
                            62 H    0.960
    31   6 C    3.946 --    32 C    1.053    33 C    0.996     3 C    0.920
                            65 H    0.914
    32   6 C    3.580 --    31 C    1.053    68 H    0.974    67 H    0.970
                            66 H    0.326     1 N    0.205
    33   6 C    3.976 --    31 C    0.996    71 H    0.982    70 H    0.981
                            69 H    0.979
    34   1 H    0.995 --     5 C    0.957
    35   1 H    0.992 --     8 C    0.972
    36   1 H    0.992 --     8 C    0.976
    37   1 H    0.992 --     8 C    0.972
    38   1 H    0.990 --    11 C    0.972
    39   1 H    0.992 --    11 C    0.976
    40   1 H    0.991 --    11 C    0.972
    41   1 H    0.994 --    12 C    0.962
    42   1 H    0.996 --    13 C    0.957
    43   1 H    0.994 --    14 C    0.971
    44   1 H    0.996 --    14 C    0.971
    45   1 H    0.996 --    15 C    0.974
    46   1 H    0.996 --    15 C    0.977
    47   1 H    0.994 --     2 C    0.966
    48   1 H    0.945 --    16 C    0.909
    49   1 H    0.992 --    18 C    0.966
    50   1 H    0.991 --    18 C    0.966
    51   1 H    0.995 --    19 C    0.971
    52   1 H    0.994 --    19 C    0.968
    53   1 H    0.996 --    21 C    0.967
    54   1 H    0.994 --    22 C    0.962
    55   1 H    0.989 --    25 C    0.971
    56   1 H    0.988 --    25 C    0.970
    57   1 H    0.992 --    25 C    0.976
    58   1 H    0.992 --    28 C    0.976
    59   1 H    0.990 --    28 C    0.972
    60   1 H    0.990 --    28 C    0.972
    61   1 H    0.995 --    29 C    0.961
    62   1 H    0.974 --    30 C    0.960
    63   1 H    0.994 --    30 C    0.972
    64   1 H    0.988 --    30 C    0.973
    65   1 H    0.967 --    31 C    0.914
    66   1 H    0.958 --     1 N    0.625    32 C    0.326
    67   1 H    0.993 --    32 C    0.970
    68   1 H    0.991 --    32 C    0.974
    69   1 H    0.994 --    33 C    0.979
    70   1 H    0.997 --    33 C    0.981
    71   1 H    0.995 --    33 C    0.982
    72   1 H    0.974 --     1 N    0.973
 ---------------------------------------------------------------------------

Topologies differ in total number of bonds
Writing topology from bond orders to xtbtopo.mol

molecular dipole:
                 x           y           z       tot (Debye)
 q only:        0.209       0.092      -0.871
   full:       -0.141       0.238      -1.044       2.744
molecular quadrupole (traceless):
                xx          xy          yy          xz          yz          zz
 q only:       82.245       9.416     -22.565       2.929     -17.421     -59.680
  q+dip:       81.574       5.415     -21.260      -0.599     -18.794     -60.313
   full:       80.543       4.959     -21.440      -1.882     -17.948     -59.104

           -------------------------------------------------
          |                Geometry Summary                 |
           -------------------------------------------------

      molecular mass/u    :      455.6105846
   center of mass at/Å    :       -0.0583827       0.0139542      -0.0375306
  moments of inertia/u·Å² :        0.2158774E+04   0.1213387E+05   0.1307436E+05
rotational constants/cm⁻¹ :        0.7808891E-02   0.1389303E-02   0.1289366E-02

 * 65 selected distances

     #   Z          #   Z                                           value/Å
     2   6 C        3   6 C                                       1.4798183
     4   6 C        5   6 C                                       1.3946953
     5   6 C        6   6 C                                       1.3865036
     6   6 C        7   8 O                                       1.3465919
     7   8 O        8   6 C                                       1.4079784
     6   6 C        9   6 C                                       1.4233454
     9   6 C       10   8 O                                       1.3442205
    10   8 O       11   6 C                                       1.4098225
     9   6 C       12   6 C                                       1.3872375
     4   6 C       13   6 C                                       1.3874130
    12   6 C       13   6 C                                       1.3866513
    14   6 C       15   6 C                                       1.5260973
     2   6 C       16   6 C                                       1.4812173
    16   6 C       17   7 N                                       1.4416189
    17   7 N       18   6 C                                       1.4324824
    20   6 C       21   6 C                                       1.3887595
    21   6 C       22   6 C                                       1.3848007
    22   6 C       23   6 C                                       1.3897361
    23   6 C       24   8 O                                       1.3433281
    24   8 O       25   6 C                                       1.4086201
    23   6 C       26   6 C                                       1.4250139
    26   6 C       27   8 O                                       1.3453746
    27   8 O       28   6 C                                       1.4087495
    20   6 C       29   6 C                                       1.3926562
    26   6 C       29   6 C                                       1.3867613
    17   7 N       30   6 C                                       1.4374591
    31   6 C       32   6 C                                       1.4969721
    31   6 C       33   6 C                                       1.5315520 (max)
     5   6 C       34   1 H                                       1.0781755
     8   6 C       35   1 H                                       1.0945716
     8   6 C       36   1 H                                       1.0881849
     8   6 C       37   1 H                                       1.0944438
    11   6 C       38   1 H                                       1.0940169
    11   6 C       39   1 H                                       1.0881260
    11   6 C       40   1 H                                       1.0942527
    12   6 C       41   1 H                                       1.0778393
    13   6 C       42   1 H                                       1.0781047
    14   6 C       43   1 H                                       1.0869966
    14   6 C       44   1 H                                       1.0900370
    15   6 C       45   1 H                                       1.0894674
    15   6 C       46   1 H                                       1.0879031
     2   6 C       47   1 H                                       1.0740298 (min)
    16   6 C       48   1 H                                       1.1023362
    18   6 C       49   1 H                                       1.0929459
    18   6 C       50   1 H                                       1.0932799
    19   6 C       51   1 H                                       1.0902380
    19   6 C       52   1 H                                       1.0904782
    21   6 C       53   1 H                                       1.0792783
    22   6 C       54   1 H                                       1.0776931
    25   6 C       55   1 H                                       1.0939336
    25   6 C       56   1 H                                       1.0942019
    25   6 C       57   1 H                                       1.0880898
    28   6 C       58   1 H                                       1.0884310
    28   6 C       59   1 H                                       1.0945675
    28   6 C       60   1 H                                       1.0943026
    29   6 C       61   1 H                                       1.0786856
    30   6 C       62   1 H                                       1.0976770
    30   6 C       63   1 H                                       1.0874733
    30   6 C       64   1 H                                       1.0905804
    31   6 C       65   1 H                                       1.1013940
    32   6 C       67   1 H                                       1.0815303
    32   6 C       68   1 H                                       1.0822539
    33   6 C       69   1 H                                       1.0863929
    33   6 C       70   1 H                                       1.0856680
    33   6 C       71   1 H                                       1.0874476

 * 4 distinct bonds (by element types)

   Z      Z             #   av. dist./Å        max./Å        min./Å
   1 H    6 C          37     1.0885143     1.1023362     1.0740298
   6 C    6 C          17     1.4264253     1.5315520     1.3848007
   6 C    7 N           3     1.4371868     1.4416189     1.4324824
   6 C    8 O           8     1.3768357     1.4098225     1.3433281


optimized geometry written to: xtbopt.xyz


           -------------------------------------------------
          | TOTAL ENERGY              -99.267682175212 Eh   |
          | GRADIENT NORM               0.002417538832 Eh/α |
          | HOMO-LUMO GAP               0.566171302669 eV   |
           -------------------------------------------------

------------------------------------------------------------------------
 * finished run on 2024/04/06 at 11:11:45.696     
------------------------------------------------------------------------
 total:
 * wall-time:     0 d,  0 h,  0 min, 15.374 sec
 *  cpu-time:     0 d,  0 h,  0 min, 15.211 sec
 * ratio c/w:     0.989 speedup
 SCF:
 * wall-time:     0 d,  0 h,  0 min,  0.191 sec
 *  cpu-time:     0 d,  0 h,  0 min,  0.190 sec
 * ratio c/w:     0.997 speedup
 ANC optimizer:
 * wall-time:     0 d,  0 h,  0 min, 15.142 sec
 *  cpu-time:     0 d,  0 h,  0 min, 14.996 sec
 * ratio c/w:     0.990 speedup

