      -----------------------------------------------------------      
     |                   =====================                   |     
     |                           x T B                           |     
     |                   =====================                   |     
     |                         S. Grimme                         |     
     |          Mulliken Center for Theoretical Chemistry        |     
     |                    University of Bonn                     |     
      -----------------------------------------------------------      

   * xtb version 6.6.1 (8d0f1dd) compiled by 'conda@1efc2f54142f' on 2023-08-01

   xtb is free software: you can redistribute it and/or modify it under
   the terms of the GNU Lesser General Public License as published by
   the Free Software Foundation, either version 3 of the License, or
   (at your option) any later version.
   
   xtb is distributed in the hope that it will be useful,
   but WITHOUT ANY WARRANTY; without even the implied warranty of
   MERCHANTABILITY or FITNESS FOR A PARTICULAR PURPOSE.  See the
   GNU Lesser General Public License for more details.
   
   Cite this work as:
   * C. Bannwarth, E. Caldeweyher, S. Ehlert, A. Hansen, P. Pracht,
     J. Seibert, S. Spicher, S. Grimme, WIREs Comput. Mol. Sci., 2020, 11,
     e01493. DOI: 10.1002/wcms.1493
   
   for GFN2-xTB:
   * C. Bannwarth, S. Ehlert and S. Grimme., J. Chem. Theory Comput., 2019,
     15, 1652-1671. DOI: 10.1021/acs.jctc.8b01176
   for GFN1-xTB:
   * S. Grimme, C. Bannwarth, P. Shushkov, J. Chem. Theory Comput., 2017,
     13, 1989-2009. DOI: 10.1021/acs.jctc.7b00118
   for GFN0-xTB:
   * P. Pracht, E. Caldeweyher, S. Ehlert, S. Grimme, ChemRxiv, 2019, preprint.
     DOI: 10.26434/chemrxiv.8326202.v1
   for GFN-FF:
   * S. Spicher and S. Grimme, Angew. Chem. Int. Ed., 2020, 59, 15665-15673.
     DOI: 10.1002/anie.202004239
   
   for ALPB and GBSA implicit solvation:
   * S. Ehlert, M. Stahn, S. Spicher, S. Grimme, J. Chem. Theory Comput.,
     2021, 17, 4250-4261. DOI: 10.1021/acs.jctc.1c00471
   
   for DFT-D4:
   * E. Caldeweyher, C. Bannwarth and S. Grimme, J. Chem. Phys., 2017,
     147, 034112. DOI: 10.1063/1.4993215
   * E. Caldeweyher, S. Ehlert, A. Hansen, H. Neugebauer, S. Spicher,
     C. Bannwarth and S. Grimme, J. Chem. Phys., 2019, 150, 154122.
     DOI: 10.1063/1.5090222
   * E. Caldeweyher, J.-M. Mewes, S. Ehlert and S. Grimme, Phys. Chem. Chem. Phys.
     2020, 22, 8499-8512. DOI: 10.1039/D0CP00502A
   
   for sTDA-xTB:
   * S. Grimme and C. Bannwarth, J. Chem. Phys., 2016, 145, 054103.
     DOI: 10.1063/1.4959605
   
   in the mass-spec context:
   * V. Asgeirsson, C. Bauer and S. Grimme, Chem. Sci., 2017, 8, 4879.
     DOI: 10.1039/c7sc00601b
   * J. Koopman and S. Grimme, ACS Omega 2019, 4, 12, 15120-15133.
     DOI: 10.1021/acsomega.9b02011
   
   for metadynamics refer to:
   * S. Grimme, J. Chem. Theory Comput., 2019, 155, 2847-2862
     DOI: 10.1021/acs.jctc.9b00143
   
   for SPH calculations refer to:
   * S. Spicher and S. Grimme, J. Chem. Theory Comput., 2021, 17, 1701-1714
     DOI: 10.1021/acs.jctc.0c01306
   
   with help from (in alphabetical order)
   P. Atkinson, C. Bannwarth, F. Bohle, G. Brandenburg, E. Caldeweyher
   M. Checinski, S. Dohm, S. Ehlert, S. Ehrlich, I. Gerasimov, C. Hölzer
   A. Katbashev, J. Koopman, C. Lavigne, S. Lehtola, F. März, M. Müller,
   F. Musil, H. Neugebauer, J. Pisarek, C. Plett, P. Pracht, F. Pultar,
   J. Seibert, P. Shushkov, S. Spicher, M. Stahn, M. Steiner, T. Strunk,
   J. Stückrath, T. Rose, and J. Unsleber
   
 * started run on 2024/04/06 at 11:11:45.712     

           -------------------------------------------------
          |                Calculation Setup                |
           -------------------------------------------------

          program call               : xtb xtbopt.xyz --opt crude --input .xc2 --gfn2
          hostname                   : n-62-30-23
          coordinate file            : xtbopt.xyz
          omp threads                :                     1

   ID    Z sym.   atoms
    1    7 N      1, 17
    2    6 C      2-6, 8, 9, 11-16, 18-23, 25, 26, 28-33
    3    8 O      7, 10, 24, 27
    4    1 H      34-72
########################################################################
[WARNING] Please study the warnings concerning your input carefully
-1- readin_getIntValue: could not parse ''
########################################################################

           -------------------------------------------------
          |                 G F N 2 - x T B                 |
           -------------------------------------------------

        Reference                      10.1021/acs.jctc.8b01176
      * Hamiltonian:
        H0-scaling (s, p, d)           1.850000    2.230000    2.230000
        zeta-weighting                 0.500000
      * Dispersion:
        s8                             2.700000
        a1                             0.520000
        a2                             5.000000
        s9                             5.000000
      * Repulsion:
        kExp                           1.500000    1.000000
        rExp                           1.000000
      * Coulomb:
        alpha                          2.000000
        third order                    shell-resolved
        anisotropic                    true
        a3                             3.000000
        a5                             4.000000
        cn-shift                       1.200000
        cn-exp                         4.000000
        max-rad                        5.000000

q/qsh data taken from xtbrestart
CAMM data taken from xtbrestart

          ...................................................
          :                      SETUP                      :
          :.................................................:
          :  # basis functions                 171          :
          :  # atomic orbitals                 171          :
          :  # shells                          105          :
          :  # electrons                       180          :
          :  max. iterations                   250          :
          :  Hamiltonian                  GFN2-xTB          :
          :  restarted?                       true          :
          :  GBSA solvation                  false          :
          :  PC potential                    false          :
          :  electronic temp.         5000.0000000     K    :
          :  accuracy                    1.0000000          :
          :  -> integral cutoff          0.2500000E+02      :
          :  -> integral neglect         0.1000000E-07      :
          :  -> SCF convergence          0.1000000E-05 Eh   :
          :  -> wf. convergence          0.1000000E-03 e    :
          :  Broyden damping             0.4000000          :
          ...................................................

 iter      E             dE          RMSdq      gap      omega  full diag
   1   -100.5959356 -0.100596E+03  0.560E-05    0.57       0.0  T
   2   -100.5959356  0.161597E-08  0.122E-04    0.57      96.6  T
   3   -100.5959356 -0.188831E-08  0.235E-05    0.57     500.5  T

   *** convergence criteria satisfied after 3 iterations ***

         #    Occupation            Energy/Eh            Energy/eV
      -------------------------------------------------------------
         1        2.0000           -0.8144128             -22.1613
       ...           ...                  ...                  ...
        84        1.9734           -0.4953731             -13.4798
        85        1.9652           -0.4910502             -13.3622
        86        1.9547           -0.4867974             -13.2464
        87        1.8318           -0.4649960             -12.6532
        88        1.8146           -0.4633068             -12.6072
        89        1.6836           -0.4536554             -12.3446
        90        1.4756           -0.4435661             -12.0700 (HOMO)
        91        0.8610           -0.4227556             -11.5038 (LUMO)
        92        0.4688           -0.4084466             -11.1144
        93        0.0024           -0.3206553              -8.7255
        94        0.0020           -0.3176101              -8.6426
        95        0.0016           -0.3141791              -8.5492
       ...           ...                  ...                  ...
       171                          0.5718905              15.5619
      -------------------------------------------------------------
                  HL-Gap            0.0208105 Eh            0.5663 eV
             Fermi-level           -0.4271867 Eh          -11.6243 eV

 SCC (total)                   0 d,  0 h,  0 min,  0.125 sec
 SCC setup                      ...        0 min,  0.001 sec (  0.779%)
 Dispersion                     ...        0 min,  0.002 sec (  1.379%)
 classical contributions        ...        0 min,  0.000 sec (  0.344%)
 integral evaluation            ...        0 min,  0.024 sec ( 19.199%)
 iterations                     ...        0 min,  0.028 sec ( 22.690%)
 molecular gradient             ...        0 min,  0.069 sec ( 55.090%)
 printout                       ...        0 min,  0.001 sec (  0.507%)

         :::::::::::::::::::::::::::::::::::::::::::::::::::::
         ::                     SUMMARY                     ::
         :::::::::::::::::::::::::::::::::::::::::::::::::::::
         :: total energy             -99.267773526136 Eh    ::
         :: gradient norm              0.006595291280 Eh/a0 ::
         :: HOMO-LUMO gap              0.566282769705 eV    ::
         ::.................................................::
         :: SCC energy              -100.595935564020 Eh    ::
         :: -> isotropic ES            0.111755221887 Eh    ::
         :: -> anisotropic ES          0.003373003611 Eh    ::
         :: -> anisotropic XC          0.042075984343 Eh    ::
         :: -> dispersion             -0.073940979820 Eh    ::
         :: repulsion energy           1.327275804199 Eh    ::
         :: add. restraining           0.000000000000 Eh    ::
         :: total charge               1.000000000328 e     ::
         :::::::::::::::::::::::::::::::::::::::::::::::::::::

      ----------------------------------------------------------- 
     |                   =====================                   |
     |                        A N C O P T                        |
     |                   =====================                   |
     |               Approximate Normal Coordinate               |
     |                Rational Function Optimizer                |
      ----------------------------------------------------------- 

          ...................................................
          :                      SETUP                      :
          :.................................................:
          :   optimization level             crude          :
          :   max. optcycles                   200          :
          :   ANC micro-cycles                  20          :
          :   degrees of freedom               210          :
          :.................................................:
          :   RF solver                   davidson          :
          :   write xtbopt.log                true          :
          :   linear?                        false          :
          :   energy convergence         0.5000000E-03 Eh   :
          :   grad. convergence          0.1000000E-01 Eh/α :
          :   maxmium RF displ.          1.0000000          :
          :   Hlow (freq-cutoff)         0.1000000E-01      :
          :   Hmax (freq-cutoff)         5.0000000          :
          :   S6 in model hess.         20.0000000          :
          ...................................................

generating ANC from model Hessian ...
Using Lindh-Hessian (1995)
 Shifting diagonal of input Hessian by    9.9388397591499995E-003
 Lowest  eigenvalues of input Hessian
    0.000000    0.000000    0.000000    0.000000    0.000000    0.000000
    0.010000    0.010051    0.010104    0.010184    0.010258    0.010356
    0.010535    0.010658    0.010835    0.011035    0.011406    0.011752
 Highest eigenvalues
    1.924559    1.925911    2.043098    2.046604    2.183311    2.183827


........................................................................
.............................. CYCLE    1 ..............................
........................................................................

 iter      E             dE          RMSdq      gap      omega  full diag
   1   -100.5959356 -0.100596E+03  0.420E-05    0.57       0.0  T
   2   -100.5959356  0.385265E-08  0.195E-04    0.57      60.5  T
   3   -100.5959356 -0.401020E-08  0.111E-05    0.57    1057.2  T
     SCC iter.                  ...        0 min,  0.026 sec
     gradient                   ...        0 min,  0.069 sec
 * total energy  :   -99.2677735 Eh     change       -0.1730882E-10 Eh
   gradient norm :     0.0065952 Eh/α   predicted     0.0000000E+00 (-100.00%)
   displ. norm   :     0.2198608 α      lambda       -0.7226585E-03
   maximum displ.:     0.1039601 α      in ANC's #7, #10, #14, ...

   *** GEOMETRY OPTIMIZATION CONVERGED AFTER 1 ITERATIONS ***

------------------------------------------------------------------------
 total energy gain   :        -0.0000000 Eh       -0.0000 kcal/mol
 total RMSD          :         0.0000000 a0        0.0000 Å
 total power (kW/mol):        -0.0000000 (step)   -0.0000 (real)
------------------------------------------------------------------------

 ANCopt (total)                0 d,  0 h,  0 min,  0.181 sec
 optimizer setup                ...        0 min,  0.000 sec (  0.162%)
 model hessian                  ...        0 min,  0.055 sec ( 30.507%)
 ANC generation                 ...        0 min,  0.006 sec (  3.486%)
 coordinate transformation      ...        0 min,  0.000 sec (  0.025%)
 single point calculation       ...        0 min,  0.117 sec ( 64.253%)
 optimization log               ...        0 min,  0.002 sec (  1.096%)
 hessian update                 ...        0 min,  0.000 sec (  0.001%)
 rational function              ...        0 min,  0.000 sec (  0.110%)

================
 final structure:
================
72
 xtb: 6.6.1 (8d0f1dd)
N           -3.57038102897145        2.72165474439617        3.55072252749221
C           -1.41434064583932        1.19127955911016        0.68732929278376
C           -2.65018851568573        1.30185156873260       -0.11909230667631
C           -3.56052379422751        0.08602016987561        0.06465291242449
C           -4.62788275863574       -0.12216693945045       -0.80860394208391
C           -5.46503590647180       -1.21916142401044       -0.67380974990724
O           -6.51790932231566       -1.49898537816363       -1.46530546250217
C           -6.84232157826734       -0.63178088113615       -2.52602025729746
C           -5.23505999902200       -2.15230520713954        0.37607855152970
O           -6.08608552077940       -3.19186742132627        0.42073607457074
C           -5.93450368460908       -4.16304691145411        1.43139549931225
C           -4.18710901207992       -1.92023467664060        1.25492409810536
C           -3.36613905861259       -0.81306833284199        1.10329097752200
C           -2.09048380186372        1.33314579087296       -1.56724945191690
C           -0.77520516896768        0.56195914840932       -1.50178372681207
C           -0.19683414293635        0.96816443870066       -0.12624421676312
N            0.73301510966008        0.06793638568546        0.50876320993361
C            2.13572717612477        0.34809117319272        0.43183738081956
C            2.78326588318369        0.07333365873326       -0.94973795633769
C            4.26550736744587        0.24956637174104       -0.84362708641772
C            4.85853061767273        1.48220157158157       -1.08359893519217
C            6.22249321038247        1.65810051781388       -0.92130799164742
C            7.02869242306121        0.60420466509366       -0.50813449511185
O            8.35535916314001        0.66549385168998       -0.30632006537496
C            9.02549195875391        1.89109236048526       -0.48809069407411
C            6.43187211452685       -0.66712108445560       -0.26688659152381
O            7.28057075877647       -1.63682901675330        0.11964885595723
C            6.78313561618086       -2.93083057044339        0.37003478269918
C            5.06338415223254       -0.81609865845547       -0.43467525345260
C            0.35748641328164       -1.31510860726691        0.62035606213899
C           -3.47287432683845        2.59982648251438        0.19474899351752
C           -4.47137055015824        2.47869137090245        1.30346739142139
C           -2.57116200071999        3.81522463145483        0.43006431294185
H           -4.81926555697137        0.58903838797703       -1.59601852027764
H           -7.09705814988401        0.36893721120196       -2.16303355251080
H           -7.71428580441937       -1.07215714249508       -3.00549207735837
H           -6.02707237953109       -0.56269071736786       -3.25293305315786
H           -6.05094810183975       -3.72585455355744        2.42747594856246
H           -6.72752076431651       -4.88824459932230        1.26042702647467
H           -4.96365703640265       -4.66308952276667        1.36209240989169
H           -4.00122814917058       -2.59797171462008        2.07214999319900
H           -2.57882859553973       -0.64809617175150        1.82109041985690
H           -2.77310258044100        0.89398779926999       -2.29025237920924
H           -1.89713302691778        2.36427157830194       -1.86318123863307
H           -0.97235523385132       -0.50945157036847       -1.51402980236077
H           -0.10984661744838        0.80505852428781       -2.32745539709069
H           -1.37997345265907        1.32562010314349        1.75236984064750
H            0.33341843321988        1.92786396536908       -0.24005937163739
H            2.64205649016889       -0.26752003488598        1.17962339693405
H            2.30117665218798        1.39669826231509        0.69319975748144
H            2.37010829631280        0.76353624995411       -1.68563183145361
H            2.54585682970431       -0.94659563028794       -1.25391491498220
H            4.25460983167427        2.31659071979421       -1.40595884728859
H            6.65426543767278        2.62541334115803       -1.11955266639669
H            8.63008366296870        2.66486932664542        0.17644828522615
H            8.96129720457473        2.23242849623358       -1.52570638586344
H           10.06598576875906        1.69614876498194       -0.23647820705336
H            7.64730874197650       -3.52562744015208        0.66004037179316
H            6.05463672083323       -2.92918922082512        1.18695861156282
H            6.32864632373145       -3.36459809404049       -0.52594685840378
H            4.59990568516788       -1.77302373486016       -0.25289400332739
H            0.62496679699403       -1.90480495365227       -0.26598865438048
H           -0.71743388371899       -1.38607623365157        0.76904367701066
H            0.86193077276949       -1.75302590312073        1.48240584185278
H           -4.06682463855028        2.79253146825411       -0.71253069502310
H           -3.77179530647272        2.52306806890757        2.49873908835073
H           -4.98696489821680        1.53348826981652        1.40574662316995
H           -5.11640574546073        3.34190569412935        1.40378604913596
H           -2.04310923175039        3.71349571852940        1.37402451591766
H           -1.84301550450481        3.93408250080086       -0.36639674816352
H           -3.17419230100614        4.71904731013502        0.47479894389908
H           -4.42684224008880        3.03484164755836        3.99673650615636

 Bond Distances (Angstroems)
 ---------------------------
N1-H66=1.0893        N1-H72=1.0152        C2-C3=1.4798         C2-C16=1.4812        C2-H47=1.0740        C3-C2=1.4798         
C3-C4=1.5299         C3-C14=1.5529        C3-C31=1.5685        C4-C3=1.5299         C4-C5=1.3947         C4-C13=1.3874        
C5-C4=1.3947         C5-C6=1.3865         C5-H34=1.0782        C6-C5=1.3865         C6-O7=1.3466         C6-C9=1.4233         
O7-C6=1.3466         O7-C8=1.4080         C8-O7=1.4080         C8-H35=1.0946        C8-H36=1.0882        C8-H37=1.0944        
C9-C6=1.4233         C9-O10=1.3442        C9-C12=1.3872        O10-C9=1.3442        O10-C11=1.4098       C11-O10=1.4098       
C11-H38=1.0940       C11-H39=1.0881       C11-H40=1.0943       C12-C9=1.3872        C12-C13=1.3867       C12-H41=1.0778       
C13-C4=1.3874        C13-C12=1.3867       C13-H42=1.0781       C14-C3=1.5529        C14-C15=1.5261       C14-H43=1.0870       
C14-H44=1.0900       C15-C14=1.5261       C15-C16=1.5465       C15-H45=1.0895       C15-H46=1.0879       C16-C2=1.4812        
C16-C15=1.5465       C16-N17=1.4416       C16-H48=1.1023       N17-C16=1.4416       N17-C18=1.4325       N17-C30=1.4375       
C18-N17=1.4325       C18-C19=1.5503       C18-H49=1.0929       C18-H50=1.0933       C19-C18=1.5503       C19-C20=1.4964       
C19-H51=1.0902       C19-H52=1.0905       C20-C19=1.4964       C20-C21=1.3888       C20-C29=1.3927       C21-C20=1.3888       
C21-C22=1.3848       C21-H53=1.0793       C22-C21=1.3848       C22-C23=1.3897       C22-H54=1.0777       C23-C22=1.3897       
C23-O24=1.3433       C23-C26=1.4250       O24-C23=1.3433       O24-C25=1.4086       C25-O24=1.4086       C25-H55=1.0939       
C25-H56=1.0942       C25-H57=1.0881       C26-C23=1.4250       C26-O27=1.3454       C26-C29=1.3868       O27-C26=1.3454       
O27-C28=1.4087       C28-O27=1.4087       C28-H58=1.0884       C28-H59=1.0946       C28-H60=1.0943       C29-C20=1.3927       
C29-C26=1.3868       C29-H61=1.0787       C30-N17=1.4375       C30-H62=1.0977       C30-H63=1.0875       C30-H64=1.0906       
C31-C3=1.5685        C31-C32=1.4970       C31-C33=1.5316       C31-H65=1.1014       C32-C31=1.4970       C32-H66=1.3857       
C32-H67=1.0815       C32-H68=1.0823       C33-C31=1.5316       C33-H69=1.0864       C33-H70=1.0857       C33-H71=1.0874       
H34-C5=1.0782        H35-C8=1.0946        H36-C8=1.0882        H37-C8=1.0944        H38-C11=1.0940       H39-C11=1.0881       
H40-C11=1.0943       H41-C12=1.0778       H42-C13=1.0781       H43-C14=1.0870       H44-C14=1.0900       H45-C15=1.0895       
H46-C15=1.0879       H47-C2=1.0740        H48-C16=1.1023       H49-C18=1.0929       H50-C18=1.0933       H51-C19=1.0902       
H52-C19=1.0905       H53-C21=1.0793       H54-C22=1.0777       H55-C25=1.0939       H56-C25=1.0942       H57-C25=1.0881       
H58-C28=1.0884       H59-C28=1.0946       H60-C28=1.0943       H61-C29=1.0787       H62-C30=1.0977       H63-C30=1.0875       
H64-C30=1.0906       H65-C31=1.1014       H66-N1=1.0893        H66-C32=1.3857       H67-C32=1.0815       H68-C32=1.0823       
H69-C33=1.0864       H70-C33=1.0857       H71-C33=1.0874       H72-N1=1.0152        
 C  H  Rav=1.0963 sigma=0.0480  Rmin=1.0740  Rmax=1.3857    38
 C  C  Rav=1.4563 sigma=0.0683  Rmin=1.3848  Rmax=1.5685    23
 N  H  Rav=1.0523 sigma=0.0371  Rmin=1.0152  Rmax=1.0893     2
 N  C  Rav=1.4372 sigma=0.0037  Rmin=1.4325  Rmax=1.4416     3
 O  C  Rav=1.3768 sigma=0.0320  Rmin=1.3433  Rmax=1.4098     8

 selected bond angles (degree)
 --------------------
H72-N1-H66=108.94              C16-C2-C3=113.48               H47-C2-C3=123.90               H47-C2-C16=122.49              
C4-C3-C2=111.84                C14-C3-C2=102.05               C14-C3-C4=110.03               C31-C3-C2=113.01               
C31-C3-C4=108.75               C31-C3-C14=111.04              C5-C4-C3=119.92                C13-C4-C3=121.43               
C13-C4-C5=118.63               C6-C5-C4=121.29                H34-C5-C4=119.65               H34-C5-C6=119.06               
O7-C6-C5=125.41                C9-C6-C5=119.53                C9-C6-O7=115.07                C8-O7-C6=119.67                
H35-C8-O7=111.52               H36-C8-O7=105.50               H36-C8-H35=109.25              H37-C8-O7=111.57               
H37-C8-H35=109.63              H37-C8-H36=109.26              O10-C9-C6=115.42               C12-C9-C6=118.66               
C12-C9-O10=125.92              C11-O10-C9=119.24              

 selected dihedral angles (degree)
 ---------------------------------
C4-C3-C2-C16=109.71           C4-C3-C2-H47=285.68           C14-C3-C2-C16=352.14          C14-C3-C2-H47=168.11          
C31-C3-C2-C16=232.84          C31-C3-C2-H47= 48.81          C5-C4-C3-C2=193.09            C5-C4-C3-C14=305.76           
C5-C4-C3-C31= 67.58           C13-C4-C3-C2= 14.30           C13-C4-C3-C14=126.97          C13-C4-C3-C31=248.79          
C6-C5-C4-C3=179.56            C6-C5-C4-C13=358.38           H34-C5-C4-C3=358.59           H34-C5-C4-C13=177.41          
O7-C6-C5-C4=179.86            O7-C6-C5-H34=  0.82           C9-C6-C5-C4=  0.09            C9-C6-C5-H34=181.05           
C8-O7-C6-C5=359.54            C8-O7-C6-C9=179.32            H35-C8-O7-C6=298.41           H36-C8-O7-C6=179.91           
H37-C8-O7-C6= 61.38           O10-C9-C6-C5=180.73           O10-C9-C6-O7=  0.94           C12-C9-C6-C5=  1.21           
C12-C9-C6-O7=181.42           C11-O10-C9-C6=180.20          C11-O10-C9-C12=359.68         
           -------------------------------------------------
          |                Final Singlepoint                |
           -------------------------------------------------

          ...................................................
          :                      SETUP                      :
          :.................................................:
          :  # basis functions                 171          :
          :  # atomic orbitals                 171          :
          :  # shells                          105          :
          :  # electrons                       180          :
          :  max. iterations                   250          :
          :  Hamiltonian                  GFN2-xTB          :
          :  restarted?                      false          :
          :  GBSA solvation                  false          :
          :  PC potential                    false          :
          :  electronic temp.         5000.0000000     K    :
          :  accuracy                    1.0000000          :
          :  -> integral cutoff          0.2500000E+02      :
          :  -> integral neglect         0.1000000E-07      :
          :  -> SCF convergence          0.1000000E-05 Eh   :
          :  -> wf. convergence          0.1000000E-03 e    :
          :  Broyden damping             0.4000000          :
          ...................................................

 iter      E             dE          RMSdq      gap      omega  full diag
   1   -100.5959356 -0.100596E+03  0.963E-06    0.57       0.0  T
   2   -100.5959356  0.105842E-09  0.282E-05    0.57     417.5  T
   3   -100.5959356 -0.107022E-09  0.101E-05    0.57    1166.8  T

   *** convergence criteria satisfied after 3 iterations ***

         #    Occupation            Energy/Eh            Energy/eV
      -------------------------------------------------------------
         1        2.0000           -0.8144128             -22.1613
       ...           ...                  ...                  ...
        84        1.9734           -0.4953731             -13.4798
        85        1.9652           -0.4910501             -13.3622
        86        1.9547           -0.4867977             -13.2464
        87        1.8318           -0.4649959             -12.6532
        88        1.8146           -0.4633068             -12.6072
        89        1.6836           -0.4536553             -12.3446
        90        1.4756           -0.4435664             -12.0701 (HOMO)
        91        0.8610           -0.4227558             -11.5038 (LUMO)
        92        0.4688           -0.4084467             -11.1144
        93        0.0024           -0.3206553              -8.7255
        94        0.0020           -0.3176101              -8.6426
        95        0.0016           -0.3141790              -8.5492
       ...           ...                  ...                  ...
       171                          0.5718906              15.5619
      -------------------------------------------------------------
                  HL-Gap            0.0208106 Eh            0.5663 eV
             Fermi-level           -0.4271868 Eh          -11.6243 eV

 SCC (total)                   0 d,  0 h,  0 min,  0.117 sec
 SCC setup                      ...        0 min,  0.001 sec (  0.744%)
 Dispersion                     ...        0 min,  0.002 sec (  1.379%)
 classical contributions        ...        0 min,  0.000 sec (  0.368%)
 integral evaluation            ...        0 min,  0.018 sec ( 15.299%)
 iterations                     ...        0 min,  0.026 sec ( 22.529%)
 molecular gradient             ...        0 min,  0.069 sec ( 59.189%)
 printout                       ...        0 min,  0.001 sec (  0.478%)

         :::::::::::::::::::::::::::::::::::::::::::::::::::::
         ::                     SUMMARY                     ::
         :::::::::::::::::::::::::::::::::::::::::::::::::::::
         :: total energy             -99.267773526156 Eh    ::
         :: gradient norm              0.006595359609 Eh/a0 ::
         :: HOMO-LUMO gap              0.566285775237 eV    ::
         ::.................................................::
         :: SCC energy              -100.595935564040 Eh    ::
         :: -> isotropic ES            0.111755691816 Eh    ::
         :: -> anisotropic ES          0.003373023018 Eh    ::
         :: -> anisotropic XC          0.042075954823 Eh    ::
         :: -> dispersion             -0.073940980089 Eh    ::
         :: repulsion energy           1.327275804199 Eh    ::
         :: add. restraining           0.000000000000 Eh    ::
         :: total charge               1.000000000327 e     ::
         :::::::::::::::::::::::::::::::::::::::::::::::::::::

           -------------------------------------------------
          |                Property Printout                |
           -------------------------------------------------

    * Orbital Energies and Occupations

         #    Occupation            Energy/Eh            Energy/eV
      -------------------------------------------------------------
         1        2.0000           -0.8144128             -22.1613
       ...           ...                  ...                  ...
        78        1.9978           -0.5351708             -14.5627
        79        1.9975           -0.5330422             -14.5048
        80        1.9969           -0.5293817             -14.4052
        81        1.9966           -0.5281008             -14.3704
        82        1.9951           -0.5222740             -14.2118
        83        1.9947           -0.5210775             -14.1792
        84        1.9734           -0.4953731             -13.4798
        85        1.9652           -0.4910501             -13.3622
        86        1.9547           -0.4867977             -13.2464
        87        1.8318           -0.4649959             -12.6532
        88        1.8146           -0.4633068             -12.6072
        89        1.6836           -0.4536553             -12.3446
        90        1.4756           -0.4435664             -12.0701 (HOMO)
        91        0.8610           -0.4227558             -11.5038 (LUMO)
        92        0.4688           -0.4084467             -11.1144
        93        0.0024           -0.3206553              -8.7255
        94        0.0020           -0.3176101              -8.6426
        95        0.0016           -0.3141790              -8.5492
        96        0.0014           -0.3119637              -8.4890
        97        0.0000           -0.1953110              -5.3147
        98        0.0000           -0.1896029              -5.1594
        99                         -0.1024205              -2.7870
       100                         -0.0805750              -2.1926
       101                         -0.0683493              -1.8599
       ...                                ...                  ...
       171                          0.5718906              15.5619
      -------------------------------------------------------------
                  HL-Gap            0.0208106 Eh            0.5663 eV
             Fermi-level           -0.4271868 Eh          -11.6243 eV

     #   Z          covCN         q      C6AA      α(0)
     1   7 N        1.714    -0.423    31.904     8.353
     2   6 C        2.946    -0.045    29.122     8.851
     3   6 C        3.916     0.015    20.261     6.398
     4   6 C        2.971     0.005    27.915     8.666
     5   6 C        2.919    -0.079    29.974     8.978
     6   6 C        2.862     0.133    25.085     8.209
     7   8 O        1.706    -0.222    17.682     5.677
     8   6 C        3.644     0.026    20.476     6.504
     9   6 C        2.864     0.134    25.071     8.207
    10   8 O        1.706    -0.219    17.633     5.670
    11   6 C        3.645     0.024    20.506     6.508
    12   6 C        2.913    -0.069    29.718     8.939
    13   6 C        2.921    -0.049    29.215     8.864
    14   6 C        3.844    -0.068    21.776     6.638
    15   6 C        3.832    -0.067    21.765     6.638
    16   6 C        3.815     0.038    19.930     6.354
    17   7 N        2.729    -0.099    23.183     7.151
    18   6 C        3.749    -0.006    20.756     6.498
    19   6 C        3.807    -0.070    21.842     6.653
    20   6 C        2.969     0.009    27.804     8.649
    21   6 C        2.921    -0.044    29.081     8.843
    22   6 C        2.913    -0.065    29.611     8.923
    23   6 C        2.864     0.136    25.026     8.200
    24   8 O        1.706    -0.213    17.540     5.655
    25   6 C        3.646     0.023    20.521     6.510
    26   6 C        2.862     0.136    25.023     8.199
    27   8 O        1.706    -0.217    17.603     5.665
    28   6 C        3.645     0.025    20.493     6.506
    29   6 C        2.919    -0.076    29.907     8.968
    30   6 C        3.697    -0.051    21.663     6.658
    31   6 C        3.851    -0.009    20.710     6.473
    32   6 C        3.414    -0.075    25.393     7.738
    33   6 C        3.756    -0.119    22.829     6.813
    34   1 H        0.926     0.051     2.304     2.374
    35   1 H        0.924     0.053     2.286     2.365
    36   1 H        0.925     0.084     1.935     2.175
    37   1 H        0.924     0.053     2.286     2.364
    38   1 H        0.924     0.058     2.224     2.332
    39   1 H        0.925     0.084     1.935     2.175
    40   1 H        0.924     0.056     2.249     2.345
    41   1 H        0.926     0.060     2.200     2.319
    42   1 H        0.926     0.056     2.243     2.342
    43   1 H        0.925     0.051     2.313     2.378
    44   1 H        0.925     0.049     2.336     2.390
    45   1 H        0.925     0.050     2.323     2.384
    46   1 H        0.925     0.046     2.372     2.408
    47   1 H        0.926     0.072     2.067     2.248
    48   1 H        0.923     0.075     2.032     2.229
    49   1 H        0.924     0.058     2.218     2.329
    50   1 H        0.924     0.054     2.271     2.357
    51   1 H        0.924     0.049     2.330     2.387
    52   1 H        0.924     0.052     2.298     2.370
    53   1 H        0.926     0.052     2.297     2.370
    54   1 H        0.926     0.062     2.178     2.308
    55   1 H        0.924     0.058     2.218     2.329
    56   1 H        0.924     0.060     2.204     2.321
    57   1 H        0.925     0.085     1.927     2.171
    58   1 H        0.925     0.084     1.934     2.175
    59   1 H        0.924     0.054     2.268     2.355
    60   1 H        0.924     0.056     2.242     2.341
    61   1 H        0.926     0.054     2.272     2.357
    62   1 H        0.924     0.045     2.384     2.415
    63   1 H        0.925     0.063     2.164     2.300
    64   1 H        0.924     0.061     2.182     2.310
    65   1 H        0.923     0.075     2.035     2.231
    66   1 H        1.427     0.204     1.072     1.617
    67   1 H        0.925     0.070     2.089     2.260
    68   1 H        0.925     0.078     2.001     2.212
    69   1 H        0.925     0.066     2.126     2.280
    70   1 H        0.925     0.047     2.356     2.401
    71   1 H        0.925     0.058     2.217     2.329
    72   1 H        0.860     0.140     1.472     1.900

 Mol. C6AA /au·bohr⁶  :      47158.657159
 Mol. C8AA /au·bohr⁸  :    1076857.080286
 Mol. α(0) /au        :        332.812386


Wiberg/Mayer (AO) data.
largest (>0.10) Wiberg bond orders for each atom

 ---------------------------------------------------------------------------
     #   Z sym  total        # sym  WBO       # sym  WBO       # sym  WBO
 ---------------------------------------------------------------------------
     1   7 N    1.851 --    72 H    0.973    66 H    0.625    32 C    0.205
     2   6 C    3.190 --     3 C    1.062    16 C    1.049    47 H    0.966
     3   6 C    3.979 --     2 C    1.062    14 C    0.964     4 C    0.943
                            31 C    0.920
     4   6 C    3.891 --    13 C    1.403     5 C    1.375     3 C    0.943
     5   6 C    3.953 --     6 C    1.392     4 C    1.375    34 H    0.957
     6   6 C    3.890 --     5 C    1.392     9 C    1.213     7 O    1.107
     7   8 O    2.253 --     6 C    1.107     8 C    0.977
     8   6 C    3.929 --     7 O    0.977    36 H    0.976    37 H    0.972
                            35 H    0.972
     9   6 C    3.888 --    12 C    1.381     6 C    1.213    10 O    1.114
    10   8 O    2.254 --     9 C    1.114    11 C    0.975
    11   6 C    3.926 --    39 H    0.976    10 O    0.975    40 H    0.972
                            38 H    0.972
    12   6 C    3.954 --    13 C    1.415     9 C    1.381    41 H    0.962
    13   6 C    3.937 --    12 C    1.415     4 C    1.403    42 H    0.957
    14   6 C    3.983 --    15 C    1.009    44 H    0.971    43 H    0.971
                             3 C    0.964
    15   6 C    3.961 --    14 C    1.009    46 H    0.977    45 H    0.974
                            16 C    0.953
    16   6 C    3.965 --     2 C    1.049    17 N    0.994    15 C    0.953
                            48 H    0.909
    17   7 N    3.122 --    18 C    1.021    30 C    1.017    16 C    0.994
    18   6 C    3.960 --    17 N    1.021    50 H    0.966    49 H    0.966
                            19 C    0.948
    19   6 C    3.961 --    20 C    1.019    51 H    0.971    52 H    0.968
                            18 C    0.948
    20   6 C    3.923 --    21 C    1.386    29 C    1.380    19 C    1.019
    21   6 C    3.924 --    22 C    1.427    20 C    1.386    53 H    0.967
    22   6 C    3.947 --    21 C    1.427    23 C    1.371    54 H    0.962
    23   6 C    3.868 --    22 C    1.371    26 C    1.207    24 O    1.119
    24   8 O    2.248 --    23 C    1.119    25 C    0.975
    25   6 C    3.924 --    57 H    0.976    24 O    0.975    55 H    0.971
                            56 H    0.970
    26   6 C    3.878 --    29 C    1.389    23 C    1.207    27 O    1.113
    27   8 O    2.249 --    26 C    1.113    28 C    0.976
    28   6 C    3.927 --    27 O    0.976    58 H    0.976    59 H    0.972
                            60 H    0.972
    29   6 C    3.947 --    26 C    1.389    20 C    1.380    61 H    0.961
    30   6 C    3.961 --    17 N    1.017    64 H    0.973    63 H    0.972
                            62 H    0.960
    31   6 C    3.946 --    32 C    1.053    33 C    0.996     3 C    0.920
                            65 H    0.914
    32   6 C    3.580 --    31 C    1.053    68 H    0.974    67 H    0.970
                            66 H    0.326     1 N    0.205
    33   6 C    3.976 --    31 C    0.996    71 H    0.982    70 H    0.981
                            69 H    0.979
    34   1 H    0.995 --     5 C    0.957
    35   1 H    0.992 --     8 C    0.972
    36   1 H    0.992 --     8 C    0.976
    37   1 H    0.992 --     8 C    0.972
    38   1 H    0.990 --    11 C    0.972
    39   1 H    0.992 --    11 C    0.976
    40   1 H    0.991 --    11 C    0.972
    41   1 H    0.994 --    12 C    0.962
    42   1 H    0.996 --    13 C    0.957
    43   1 H    0.994 --    14 C    0.971
    44   1 H    0.996 --    14 C    0.971
    45   1 H    0.996 --    15 C    0.974
    46   1 H    0.996 --    15 C    0.977
    47   1 H    0.994 --     2 C    0.966
    48   1 H    0.945 --    16 C    0.909
    49   1 H    0.992 --    18 C    0.966
    50   1 H    0.991 --    18 C    0.966
    51   1 H    0.995 --    19 C    0.971
    52   1 H    0.994 --    19 C    0.968
    53   1 H    0.996 --    21 C    0.967
    54   1 H    0.994 --    22 C    0.962
    55   1 H    0.989 --    25 C    0.971
    56   1 H    0.988 --    25 C    0.970
    57   1 H    0.992 --    25 C    0.976
    58   1 H    0.992 --    28 C    0.976
    59   1 H    0.990 --    28 C    0.972
    60   1 H    0.990 --    28 C    0.972
    61   1 H    0.995 --    29 C    0.961
    62   1 H    0.974 --    30 C    0.960
    63   1 H    0.994 --    30 C    0.972
    64   1 H    0.988 --    30 C    0.973
    65   1 H    0.967 --    31 C    0.914
    66   1 H    0.958 --     1 N    0.625    32 C    0.326
    67   1 H    0.993 --    32 C    0.970
    68   1 H    0.991 --    32 C    0.974
    69   1 H    0.994 --    33 C    0.979
    70   1 H    0.997 --    33 C    0.981
    71   1 H    0.995 --    33 C    0.982
    72   1 H    0.974 --     1 N    0.973
 ---------------------------------------------------------------------------

Topologies differ in total number of bonds
Writing topology from bond orders to xtbtopo.mol

molecular dipole:
                 x           y           z       tot (Debye)
 q only:        0.209       0.092      -0.871
   full:       -0.141       0.238      -1.044       2.744
molecular quadrupole (traceless):
                xx          xy          yy          xz          yz          zz
 q only:       82.245       9.416     -22.565       2.929     -17.421     -59.680
  q+dip:       81.573       5.415     -21.260      -0.599     -18.794     -60.313
   full:       80.543       4.959     -21.439      -1.882     -17.948     -59.104

           -------------------------------------------------
          |                Geometry Summary                 |
           -------------------------------------------------

      molecular mass/u    :      455.6105846
   center of mass at/Å    :       -0.0583827       0.0139542      -0.0375306
  moments of inertia/u·Å² :        0.2158774E+04   0.1213387E+05   0.1307436E+05
rotational constants/cm⁻¹ :        0.7808891E-02   0.1389303E-02   0.1289366E-02

 * 65 selected distances

     #   Z          #   Z                                           value/Å
     2   6 C        3   6 C                                       1.4798183
     4   6 C        5   6 C                                       1.3946953
     5   6 C        6   6 C                                       1.3865036
     6   6 C        7   8 O                                       1.3465919
     7   8 O        8   6 C                                       1.4079784
     6   6 C        9   6 C                                       1.4233454
     9   6 C       10   8 O                                       1.3442205
    10   8 O       11   6 C                                       1.4098225
     9   6 C       12   6 C                                       1.3872375
     4   6 C       13   6 C                                       1.3874130
    12   6 C       13   6 C                                       1.3866513
    14   6 C       15   6 C                                       1.5260973
     2   6 C       16   6 C                                       1.4812173
    16   6 C       17   7 N                                       1.4416189
    17   7 N       18   6 C                                       1.4324824
    20   6 C       21   6 C                                       1.3887595
    21   6 C       22   6 C                                       1.3848007
    22   6 C       23   6 C                                       1.3897361
    23   6 C       24   8 O                                       1.3433281
    24   8 O       25   6 C                                       1.4086201
    23   6 C       26   6 C                                       1.4250139
    26   6 C       27   8 O                                       1.3453746
    27   8 O       28   6 C                                       1.4087495
    20   6 C       29   6 C                                       1.3926562
    26   6 C       29   6 C                                       1.3867613
    17   7 N       30   6 C                                       1.4374591
    31   6 C       32   6 C                                       1.4969721
    31   6 C       33   6 C                                       1.5315520 (max)
     5   6 C       34   1 H                                       1.0781755
     8   6 C       35   1 H                                       1.0945716
     8   6 C       36   1 H                                       1.0881849
     8   6 C       37   1 H                                       1.0944438
    11   6 C       38   1 H                                       1.0940169
    11   6 C       39   1 H                                       1.0881260
    11   6 C       40   1 H                                       1.0942527
    12   6 C       41   1 H                                       1.0778393
    13   6 C       42   1 H                                       1.0781047
    14   6 C       43   1 H                                       1.0869966
    14   6 C       44   1 H                                       1.0900370
    15   6 C       45   1 H                                       1.0894674
    15   6 C       46   1 H                                       1.0879031
     2   6 C       47   1 H                                       1.0740298 (min)
    16   6 C       48   1 H                                       1.1023362
    18   6 C       49   1 H                                       1.0929459
    18   6 C       50   1 H                                       1.0932799
    19   6 C       51   1 H                                       1.0902380
    19   6 C       52   1 H                                       1.0904782
    21   6 C       53   1 H                                       1.0792783
    22   6 C       54   1 H                                       1.0776931
    25   6 C       55   1 H                                       1.0939336
    25   6 C       56   1 H                                       1.0942019
    25   6 C       57   1 H                                       1.0880898
    28   6 C       58   1 H                                       1.0884310
    28   6 C       59   1 H                                       1.0945675
    28   6 C       60   1 H                                       1.0943026
    29   6 C       61   1 H                                       1.0786856
    30   6 C       62   1 H                                       1.0976770
    30   6 C       63   1 H                                       1.0874733
    30   6 C       64   1 H                                       1.0905804
    31   6 C       65   1 H                                       1.1013940
    32   6 C       67   1 H                                       1.0815303
    32   6 C       68   1 H                                       1.0822539
    33   6 C       69   1 H                                       1.0863929
    33   6 C       70   1 H                                       1.0856680
    33   6 C       71   1 H                                       1.0874476

 * 4 distinct bonds (by element types)

   Z      Z             #   av. dist./Å        max./Å        min./Å
   1 H    6 C          37     1.0885143     1.1023362     1.0740298
   6 C    6 C          17     1.4264253     1.5315520     1.3848007
   6 C    7 N           3     1.4371868     1.4416189     1.4324824
   6 C    8 O           8     1.3768357     1.4098225     1.3433281


optimized geometry written to: xtbopt.xyz


           -------------------------------------------------
          | TOTAL ENERGY              -99.267773526156 Eh   |
          | GRADIENT NORM               0.006595359609 Eh/α |
          | HOMO-LUMO GAP               0.566285775237 eV   |
           -------------------------------------------------

------------------------------------------------------------------------
 * finished run on 2024/04/06 at 11:11:46.693     
------------------------------------------------------------------------
 total:
 * wall-time:     0 d,  0 h,  0 min,  0.980 sec
 *  cpu-time:     0 d,  0 h,  0 min,  0.441 sec
 * ratio c/w:     0.449 speedup
 SCF:
 * wall-time:     0 d,  0 h,  0 min,  0.126 sec
 *  cpu-time:     0 d,  0 h,  0 min,  0.120 sec
 * ratio c/w:     0.952 speedup
 ANC optimizer:
 * wall-time:     0 d,  0 h,  0 min,  0.305 sec
 *  cpu-time:     0 d,  0 h,  0 min,  0.297 sec
 * ratio c/w:     0.975 speedup

