72
 energy: -99.267773526153 gnorm: 0.006595227110 xtb: 6.6.1 (8d0f1dd)
N           -3.57038102897145        2.72165474439617        3.55072252749221
C           -1.41434064583932        1.19127955911016        0.68732929278376
C           -2.65018851568573        1.30185156873260       -0.11909230667631
C           -3.56052379422751        0.08602016987561        0.06465291242449
C           -4.62788275863574       -0.12216693945045       -0.80860394208391
C           -5.46503590647180       -1.21916142401044       -0.67380974990724
O           -6.51790932231566       -1.49898537816363       -1.46530546250217
C           -6.84232157826734       -0.63178088113615       -2.52602025729746
C           -5.23505999902200       -2.15230520713954        0.37607855152970
O           -6.08608552077940       -3.19186742132627        0.42073607457074
C           -5.93450368460908       -4.16304691145411        1.43139549931225
C           -4.18710901207992       -1.92023467664060        1.25492409810536
C           -3.36613905861259       -0.81306833284199        1.10329097752200
C           -2.09048380186372        1.33314579087296       -1.56724945191690
C           -0.77520516896768        0.56195914840932       -1.50178372681207
C           -0.19683414293635        0.96816443870066       -0.12624421676312
N            0.73301510966008        0.06793638568546        0.50876320993361
C            2.13572717612477        0.34809117319272        0.43183738081956
C            2.78326588318369        0.07333365873326       -0.94973795633769
C            4.26550736744587        0.24956637174104       -0.84362708641772
C            4.85853061767273        1.48220157158157       -1.08359893519217
C            6.22249321038247        1.65810051781388       -0.92130799164742
C            7.02869242306121        0.60420466509366       -0.50813449511185
O            8.35535916314001        0.66549385168998       -0.30632006537496
C            9.02549195875391        1.89109236048526       -0.48809069407411
C            6.43187211452685       -0.66712108445560       -0.26688659152381
O            7.28057075877647       -1.63682901675330        0.11964885595723
C            6.78313561618086       -2.93083057044339        0.37003478269918
C            5.06338415223254       -0.81609865845547       -0.43467525345260
C            0.35748641328164       -1.31510860726691        0.62035606213899
C           -3.47287432683845        2.59982648251438        0.19474899351752
C           -4.47137055015824        2.47869137090245        1.30346739142139
C           -2.57116200071999        3.81522463145483        0.43006431294185
H           -4.81926555697137        0.58903838797703       -1.59601852027764
H           -7.09705814988401        0.36893721120196       -2.16303355251080
H           -7.71428580441937       -1.07215714249508       -3.00549207735837
H           -6.02707237953109       -0.56269071736786       -3.25293305315786
H           -6.05094810183975       -3.72585455355744        2.42747594856246
H           -6.72752076431651       -4.88824459932230        1.26042702647467
H           -4.96365703640265       -4.66308952276667        1.36209240989169
H           -4.00122814917058       -2.59797171462008        2.07214999319900
H           -2.57882859553973       -0.64809617175150        1.82109041985690
H           -2.77310258044100        0.89398779926999       -2.29025237920924
H           -1.89713302691778        2.36427157830194       -1.86318123863307
H           -0.97235523385132       -0.50945157036847       -1.51402980236077
H           -0.10984661744838        0.80505852428781       -2.32745539709069
H           -1.37997345265907        1.32562010314349        1.75236984064750
H            0.33341843321988        1.92786396536908       -0.24005937163739
H            2.64205649016889       -0.26752003488598        1.17962339693405
H            2.30117665218798        1.39669826231509        0.69319975748144
H            2.37010829631280        0.76353624995411       -1.68563183145361
H            2.54585682970431       -0.94659563028794       -1.25391491498220
H            4.25460983167427        2.31659071979421       -1.40595884728859
H            6.65426543767278        2.62541334115803       -1.11955266639669
H            8.63008366296870        2.66486932664542        0.17644828522615
H            8.96129720457473        2.23242849623358       -1.52570638586344
H           10.06598576875906        1.69614876498194       -0.23647820705336
H            7.64730874197650       -3.52562744015208        0.66004037179316
H            6.05463672083323       -2.92918922082512        1.18695861156282
H            6.32864632373145       -3.36459809404049       -0.52594685840378
H            4.59990568516788       -1.77302373486016       -0.25289400332739
H            0.62496679699403       -1.90480495365227       -0.26598865438048
H           -0.71743388371899       -1.38607623365157        0.76904367701066
H            0.86193077276949       -1.75302590312073        1.48240584185278
H           -4.06682463855028        2.79253146825411       -0.71253069502310
H           -3.77179530647272        2.52306806890757        2.49873908835073
H           -4.98696489821680        1.53348826981652        1.40574662316995
H           -5.11640574546073        3.34190569412935        1.40378604913596
H           -2.04310923175039        3.71349571852940        1.37402451591766
H           -1.84301550450481        3.93408250080086       -0.36639674816352
H           -3.17419230100614        4.71904731013502        0.47479894389908
H           -4.42684224008880        3.03484164755836        3.99673650615636
