25
 energy: -42.066481827459 gnorm: 0.004538259006 xtb: 6.6.1 (8d0f1dd)
C            3.42098061282035        0.88224112151636        0.27812663460568
N            2.08207280623047        1.24939640505207        0.34691072855109
C            1.97541736558215       -2.58790235569469       -0.45074154940600
N            1.66534083855032       -1.59929947915787        0.30180262442430
C            0.60253276052884       -0.67314875033130        0.16666002263053
C            0.92643957733618        0.70914065842426        0.26742280572500
C           -0.22213365568751        1.68792443311015        0.26019972451205
O           -0.07361976291078        2.85305892182984        0.49612365667072
N           -1.44781862490112        1.14104565975586       -0.06872919562013
C           -2.58524705812294        2.04362619111837       -0.19660947872255
C           -1.72908644603605       -0.19121091835296       -0.25190159747976
O           -2.82193374590516       -0.60011787548139       -0.52694890461426
N           -0.65591755367521       -1.09557322331269       -0.06095297486111
C           -1.02661418915616       -2.49699439671990       -0.09658373441132
H            3.83144959491821        0.81516771539329        1.29173780584929
H            3.62801474918060       -0.04653895193424       -0.26861757489966
H            3.95389396768842        1.70696207205355       -0.20725800474851
H            1.37088947302557       -2.83595814616182       -1.31433010015672
H           -2.21515301586125        3.06617375436132       -0.18619543705543
H           -3.11124297281882        1.83206700869156       -1.12701305437191
H           -3.27739348675444        1.89247684407680        0.63265472268018
H           -0.39361628282812       -3.08444619745000        0.56536511681435
H           -0.96694142831798       -2.88725573475359       -1.11500922327826
H           -2.06780478371448       -2.57835871817103        0.21882131186686
H            2.29792277492797       -1.38423749626240        1.07623729319507
