      -----------------------------------------------------------      
     |                   =====================                   |     
     |                           x T B                           |     
     |                   =====================                   |     
     |                         S. Grimme                         |     
     |          Mulliken Center for Theoretical Chemistry        |     
     |                    University of Bonn                     |     
      -----------------------------------------------------------      

   * xtb version 6.6.1 (8d0f1dd) compiled by 'conda@1efc2f54142f' on 2023-08-01

   xtb is free software: you can redistribute it and/or modify it under
   the terms of the GNU Lesser General Public License as published by
   the Free Software Foundation, either version 3 of the License, or
   (at your option) any later version.
   
   xtb is distributed in the hope that it will be useful,
   but WITHOUT ANY WARRANTY; without even the implied warranty of
   MERCHANTABILITY or FITNESS FOR A PARTICULAR PURPOSE.  See the
   GNU Lesser General Public License for more details.
   
   Cite this work as:
   * C. Bannwarth, E. Caldeweyher, S. Ehlert, A. Hansen, P. Pracht,
     J. Seibert, S. Spicher, S. Grimme, WIREs Comput. Mol. Sci., 2020, 11,
     e01493. DOI: 10.1002/wcms.1493
   
   for GFN2-xTB:
   * C. Bannwarth, S. Ehlert and S. Grimme., J. Chem. Theory Comput., 2019,
     15, 1652-1671. DOI: 10.1021/acs.jctc.8b01176
   for GFN1-xTB:
   * S. Grimme, C. Bannwarth, P. Shushkov, J. Chem. Theory Comput., 2017,
     13, 1989-2009. DOI: 10.1021/acs.jctc.7b00118
   for GFN0-xTB:
   * P. Pracht, E. Caldeweyher, S. Ehlert, S. Grimme, ChemRxiv, 2019, preprint.
     DOI: 10.26434/chemrxiv.8326202.v1
   for GFN-FF:
   * S. Spicher and S. Grimme, Angew. Chem. Int. Ed., 2020, 59, 15665-15673.
     DOI: 10.1002/anie.202004239
   
   for ALPB and GBSA implicit solvation:
   * S. Ehlert, M. Stahn, S. Spicher, S. Grimme, J. Chem. Theory Comput.,
     2021, 17, 4250-4261. DOI: 10.1021/acs.jctc.1c00471
   
   for DFT-D4:
   * E. Caldeweyher, C. Bannwarth and S. Grimme, J. Chem. Phys., 2017,
     147, 034112. DOI: 10.1063/1.4993215
   * E. Caldeweyher, S. Ehlert, A. Hansen, H. Neugebauer, S. Spicher,
     C. Bannwarth and S. Grimme, J. Chem. Phys., 2019, 150, 154122.
     DOI: 10.1063/1.5090222
   * E. Caldeweyher, J.-M. Mewes, S. Ehlert and S. Grimme, Phys. Chem. Chem. Phys.
     2020, 22, 8499-8512. DOI: 10.1039/D0CP00502A
   
   for sTDA-xTB:
   * S. Grimme and C. Bannwarth, J. Chem. Phys., 2016, 145, 054103.
     DOI: 10.1063/1.4959605
   
   in the mass-spec context:
   * V. Asgeirsson, C. Bauer and S. Grimme, Chem. Sci., 2017, 8, 4879.
     DOI: 10.1039/c7sc00601b
   * J. Koopman and S. Grimme, ACS Omega 2019, 4, 12, 15120-15133.
     DOI: 10.1021/acsomega.9b02011
   
   for metadynamics refer to:
   * S. Grimme, J. Chem. Theory Comput., 2019, 155, 2847-2862
     DOI: 10.1021/acs.jctc.9b00143
   
   for SPH calculations refer to:
   * S. Spicher and S. Grimme, J. Chem. Theory Comput., 2021, 17, 1701-1714
     DOI: 10.1021/acs.jctc.0c01306
   
   with help from (in alphabetical order)
   P. Atkinson, C. Bannwarth, F. Bohle, G. Brandenburg, E. Caldeweyher
   M. Checinski, S. Dohm, S. Ehlert, S. Ehrlich, I. Gerasimov, C. Hölzer
   A. Katbashev, J. Koopman, C. Lavigne, S. Lehtola, F. März, M. Müller,
   F. Musil, H. Neugebauer, J. Pisarek, C. Plett, P. Pracht, F. Pultar,
   J. Seibert, P. Shushkov, S. Spicher, M. Stahn, M. Steiner, T. Strunk,
   J. Stückrath, T. Rose, and J. Unsleber
   
 * started run on 2024/06/05 at 19:58:04.839     

           -------------------------------------------------
          |                Calculation Setup                |
           -------------------------------------------------

          program call               : xtb struc.xyz --opt loose --input .xc1 --gfn2
          hostname                   : n-62-29-35
          coordinate file            : struc.xyz
          omp threads                :                     1

   ID    Z sym.   atoms
    1    6 C      1, 3, 5-7, 10, 11, 14
    2    7 N      2, 4, 9, 13
    3    8 O      8, 12
    4    1 H      15-25
constraining bond 3 17 to    3.7133300 Å, actual value:    3.3163079 Å

           -------------------------------------------------
          |                 G F N 2 - x T B                 |
           -------------------------------------------------

        Reference                      10.1021/acs.jctc.8b01176
      * Hamiltonian:
        H0-scaling (s, p, d)           1.850000    2.230000    2.230000
        zeta-weighting                 0.500000
      * Dispersion:
        s8                             2.700000
        a1                             0.520000
        a2                             5.000000
        s9                             5.000000
      * Repulsion:
        kExp                           1.500000    1.000000
        rExp                           1.000000
      * Coulomb:
        alpha                          2.000000
        third order                    shell-resolved
        anisotropic                    true
        a3                             3.000000
        a5                             4.000000
        cn-shift                       1.200000
        cn-exp                         4.000000
        max-rad                        5.000000


          ...................................................
          :                      SETUP                      :
          :.................................................:
          :  # basis functions                  67          :
          :  # atomic orbitals                  67          :
          :  # shells                           39          :
          :  # electrons                        74          :
          :  max. iterations                   250          :
          :  Hamiltonian                  GFN2-xTB          :
          :  restarted?                      false          :
          :  GBSA solvation                  false          :
          :  PC potential                    false          :
          :  electronic temp.         5000.0000000     K    :
          :  accuracy                    1.0000000          :
          :  -> integral cutoff          0.2500000E+02      :
          :  -> integral neglect         0.1000000E-07      :
          :  -> SCF convergence          0.1000000E-05 Eh   :
          :  -> wf. convergence          0.1000000E-03 e    :
          :  Broyden damping             0.4000000          :
          ...................................................

 iter      E             dE          RMSdq      gap      omega  full diag
   1    -42.5894031 -0.425894E+02  0.445E+00    3.52       0.0  T
   2    -42.7683054 -0.178902E+00  0.251E+00    3.36       1.0  T
   3    -42.7759211 -0.761567E-02  0.147E+00    3.35       1.0  T
   4    -42.7728404  0.308066E-02  0.553E-01    3.33       1.0  T
   5    -42.7789548 -0.611444E-02  0.112E-01    3.35       1.0  T
   6    -42.7790473 -0.924914E-04  0.614E-02    3.33       1.0  T
   7    -42.7790721 -0.247928E-04  0.258E-02    3.34       1.0  T
   8    -42.7790772 -0.508996E-05  0.938E-03    3.34       2.1  T
   9    -42.7790779 -0.669422E-06  0.448E-03    3.34       4.5  T
  10    -42.7790780 -0.821511E-07  0.115E-03    3.34      17.4  T
  11    -42.7790780 -0.322662E-08  0.553E-04    3.34      36.2  T
  12    -42.7790780 -0.287052E-08  0.180E-04    3.34     111.1  T

   *** convergence criteria satisfied after 12 iterations ***

         #    Occupation            Energy/Eh            Energy/eV
      -------------------------------------------------------------
         1        2.0000           -0.9185990             -24.9964
       ...           ...                  ...                  ...
        31        1.9996           -0.6230278             -16.9534
        32        1.9995           -0.6194601             -16.8564
        33        1.9979           -0.5974976             -16.2587
        34        1.9932           -0.5789629             -15.7544
        35        1.9817           -0.5631863             -15.3251
        36        1.9779           -0.5602245             -15.2445
        37        1.9748           -0.5581234             -15.1873 (HOMO)
        38        0.0652           -0.4353579             -11.8467 (LUMO)
        39        0.0099           -0.4050467             -11.0219
        40        0.0013           -0.3732218             -10.1559
        41        0.0000           -0.2886859              -7.8555
        42                         -0.2065804              -5.6213
       ...                                ...                  ...
        67                          0.5625656              15.3082
      -------------------------------------------------------------
                  HL-Gap            0.1227656 Eh            3.3406 eV
             Fermi-level           -0.4890455 Eh          -13.3076 eV

 SCC (total)                   0 d,  0 h,  0 min,  0.052 sec
 SCC setup                      ...        0 min,  0.000 sec (  0.414%)
 Dispersion                     ...        0 min,  0.000 sec (  0.542%)
 classical contributions        ...        0 min,  0.000 sec (  0.139%)
 integral evaluation            ...        0 min,  0.005 sec (  9.098%)
 iterations                     ...        0 min,  0.022 sec ( 42.860%)
 molecular gradient             ...        0 min,  0.024 sec ( 46.590%)
 printout                       ...        0 min,  0.000 sec (  0.333%)

         :::::::::::::::::::::::::::::::::::::::::::::::::::::
         ::                     SUMMARY                     ::
         :::::::::::::::::::::::::::::::::::::::::::::::::::::
         :: total energy             -42.529305788419 Eh    ::
         :: gradient norm              1.058706877125 Eh/a0 ::
         :: HOMO-LUMO gap              3.340621582928 eV    ::
         ::.................................................::
         :: SCC energy               -42.779077977399 Eh    ::
         :: -> isotropic ES            0.141123876439 Eh    ::
         :: -> anisotropic ES         -0.005230418907 Eh    ::
         :: -> anisotropic XC          0.011966818540 Eh    ::
         :: -> dispersion             -0.022657731803 Eh    ::
         :: repulsion energy           0.531105277918 Eh    ::
         :: add. restraining          -0.281447247947 Eh    ::
         :: total charge               1.000000000002 e     ::
         :::::::::::::::::::::::::::::::::::::::::::::::::::::

      ----------------------------------------------------------- 
     |                   =====================                   |
     |                        A N C O P T                        |
     |                   =====================                   |
     |               Approximate Normal Coordinate               |
     |                Rational Function Optimizer                |
      ----------------------------------------------------------- 

          ...................................................
          :                      SETUP                      :
          :.................................................:
          :   optimization level             loose          :
          :   max. optcycles                   200          :
          :   ANC micro-cycles                  20          :
          :   degrees of freedom                69          :
          :.................................................:
          :   RF solver                   davidson          :
          :   write xtbopt.log                true          :
          :   linear?                        false          :
          :   energy convergence         0.5000000E-04 Eh   :
          :   grad. convergence          0.4000000E-02 Eh/α :
          :   maxmium RF displ.          1.0000000          :
          :   Hlow (freq-cutoff)         0.1000000E-01      :
          :   Hmax (freq-cutoff)         5.0000000          :
          :   S6 in model hess.         20.0000000          :
          ...................................................

generating ANC from model Hessian ...
Using Lindh-Hessian (1995)
 Shifting diagonal of input Hessian by    1.4333487811566188     
 Lowest  eigenvalues of input Hessian
    0.010000    0.000000    0.000000    0.000000    0.000000    0.000000
    0.000000    1.437486    1.438932    1.439901    1.444084    1.444613
    1.447232    1.449386    1.451506    1.456796    1.465759    1.472844
 Highest eigenvalues
    3.443939    3.576100    3.614347    3.713709    3.846669    3.975388


........................................................................
.............................. CYCLE    1 ..............................
........................................................................

 iter      E             dE          RMSdq      gap      omega  full diag
   1    -42.7790780 -0.427791E+02  0.626E-05    3.34       0.0  T
   2    -42.7790780 -0.124203E-10  0.329E-05    3.34     607.4  T
   3    -42.7790780  0.106581E-12  0.193E-05    3.34    1034.2  T
     SCC iter.                  ...        0 min,  0.005 sec
     gradient                   ...        0 min,  0.025 sec
 * total energy  :   -42.5293058 Eh     change       -0.6650680E-10 Eh
   gradient norm :     1.0587065 Eh/α   predicted     0.0000000E+00 (-100.00%)
   displ. norm   :     0.9871754 α      lambda       -0.1023399E+01
   maximum displ.:     0.9840311 α      in ANC's #1, #64, #41, ...

........................................................................
.............................. CYCLE    2 ..............................
........................................................................

 iter      E             dE          RMSdq      gap      omega  full diag
   1    -42.7461490 -0.427461E+02  0.152E+00    4.06       0.0  T
   2    -42.7627413 -0.165923E-01  0.881E-01    4.13       1.0  T
   3    -42.7640299 -0.128862E-02  0.466E-01    4.08       1.0  T
   4    -42.7644831 -0.453185E-03  0.117E-01    4.11       1.0  T
   5    -42.7646592 -0.176096E-03  0.302E-02    4.08       1.0  T
   6    -42.7646650 -0.575760E-05  0.146E-02    4.09       1.4  T
   7    -42.7646653 -0.369745E-06  0.411E-03    4.09       4.9  T
   8    -42.7646656 -0.240815E-06  0.122E-03    4.09      16.4  T
   9    -42.7646656 -0.595086E-08  0.615E-04    4.09      32.5  T
  10    -42.7646656 -0.331998E-08  0.166E-04    4.09     120.6  T
     SCC iter.                  ...        0 min,  0.016 sec
     gradient                   ...        0 min,  0.025 sec
 * total energy  :   -44.2603837 Eh     change       -0.1731078E+01 Eh
   gradient norm :     2.4187719 Eh/α   predicted    -0.1010359E+01 ( -41.63%)
   displ. norm   :     0.9944550 α      lambda       -0.2395864E+01
   maximum displ.:     0.9910662 α      in ANC's #1, #41, #43, ...

........................................................................
.............................. CYCLE    3 ..............................
........................................................................

 iter      E             dE          RMSdq      gap      omega  full diag
   1    -42.5496679 -0.425497E+02  0.150E+00    4.00       0.0  T
   2    -42.5796366 -0.299688E-01  0.106E+00    4.31       1.0  T
   3    -42.5855754 -0.593875E-02  0.556E-01    4.20       1.0  T
   4    -42.5855736  0.180259E-05  0.172E-01    4.22       1.0  T
   5    -42.5858599 -0.286294E-03  0.454E-02    4.20       1.0  T
   6    -42.5858813 -0.214283E-04  0.184E-02    4.20       1.1  T
   7    -42.5858820 -0.732398E-06  0.530E-03    4.20       3.8  T
   8    -42.5858823 -0.225150E-06  0.168E-03    4.20      11.9  T
   9    -42.5858823 -0.203563E-07  0.532E-04    4.20      37.6  T
  10    -42.5858823 -0.298970E-08  0.202E-04    4.20      99.0  T
     SCC iter.                  ...        0 min,  0.027 sec
     gradient                   ...        0 min,  0.012 sec
 * total energy  :   -47.2912852 Eh     change       -0.3030901E+01 Eh
   gradient norm :     4.0891938 Eh/α   predicted    -0.2382894E+01 ( -21.38%)
   displ. norm   :     0.9690237 α      lambda       -0.3887461E+01
   maximum displ.:     0.9264975 α      in ANC's #1, #66, #62, ...

........................................................................
.............................. CYCLE    4 ..............................
........................................................................

 iter      E             dE          RMSdq      gap      omega  full diag
   1    -42.3872566 -0.423873E+02  0.172E+00    3.39       0.0  T
   2    -42.4069906 -0.197339E-01  0.116E+00    3.46       1.0  T
   3    -42.4121408 -0.515017E-02  0.598E-01    3.36       1.0  T
   4    -42.4129112 -0.770492E-03  0.112E-01    3.42       1.0  T
   5    -42.4131115 -0.200289E-03  0.450E-02    3.40       1.0  T
   6    -42.4131219 -0.103789E-04  0.156E-02    3.41       1.3  T
   7    -42.4131227 -0.797927E-06  0.520E-03    3.41       3.8  T
   8    -42.4131229 -0.151993E-06  0.183E-03    3.41      10.9  T
   9    -42.4131229 -0.279897E-07  0.877E-04    3.41      22.8  T
  10    -42.4131229 -0.348487E-08  0.290E-04    3.41      68.9  T
     SCC iter.                  ...        0 min,  0.014 sec
     gradient                   ...        0 min,  0.012 sec
 * total energy  :   -51.6400638 Eh     change       -0.4348779E+01 Eh
   gradient norm :     4.9522403 Eh/α   predicted    -0.3768911E+01 ( -13.33%)
   displ. norm   :     0.9609440 α      lambda       -0.4683559E+01
   maximum displ.:     0.8781994 α      in ANC's #1, #38, #66, ...

........................................................................
.............................. CYCLE    5 ..............................
........................................................................

 iter      E             dE          RMSdq      gap      omega  full diag
   1    -42.2681531 -0.422682E+02  0.178E+00    1.59       0.0  T
   2    -42.2943188 -0.261658E-01  0.115E+00    1.95       1.0  T
   3    -42.3153779 -0.210591E-01  0.533E-01    2.08       1.0  T
   4    -42.3170325 -0.165456E-02  0.315E-01    1.87       1.0  T
   5    -42.3176435 -0.611036E-03  0.563E-02    1.93       1.0  T
   6    -42.3176768 -0.333322E-04  0.264E-02    1.94       1.0  T
   7    -42.3176786 -0.178108E-05  0.101E-02    1.95       2.0  T
   8    -42.3176810 -0.238729E-05  0.427E-03    1.95       4.7  T
   9    -42.3176813 -0.311307E-06  0.126E-03    1.95      15.8  T
  10    -42.3176813 -0.220392E-07  0.526E-04    1.95      38.0  T
  11    -42.3176813 -0.127357E-08  0.190E-04    1.95     105.1  T
     SCC iter.                  ...        0 min,  0.015 sec
     gradient                   ...        0 min,  0.012 sec
 * total energy  :   -57.2762156 Eh     change       -0.5636152E+01 Eh
   gradient norm :     6.3776544 Eh/α   predicted    -0.4504372E+01 ( -20.08%)
   displ. norm   :     0.9246966 α      lambda       -0.5806532E+01
   maximum displ.:     0.6915201 α      in ANC's #1, #38, #66, ...

........................................................................
.............................. CYCLE    6 ..............................
........................................................................

 iter      E             dE          RMSdq      gap      omega  full diag
   1    -42.2059445 -0.422059E+02  0.322E+00    0.73       0.0  T
   2    -42.2750888 -0.691443E-01  0.181E+00    0.97       1.0  T
   3    -42.3256157 -0.505270E-01  0.119E+00    0.40       1.0  T
   4    -42.3603414 -0.347257E-01  0.850E-01    1.04       1.0  T
   5    -42.3701708 -0.982944E-02  0.358E-01    0.64       1.0  T
   6    -42.3731864 -0.301554E-02  0.105E-01    0.76       1.0  T
   7    -42.3734998 -0.313417E-03  0.256E-02    0.74       1.0  T
   8    -42.3735038 -0.397940E-05  0.126E-02    0.74       1.6  T
   9    -42.3735042 -0.447559E-06  0.528E-03    0.74       3.8  T
  10    -42.3735048 -0.567090E-06  0.171E-03    0.74      11.7  T
  11    -42.3735048 -0.326915E-07  0.642E-04    0.74      31.1  T
  12    -42.3735048 -0.180981E-08  0.197E-04    0.74     101.5  T
     SCC iter.                  ...        0 min,  0.017 sec
     gradient                   ...        0 min,  0.012 sec
 * total energy  :   -36.8102666 Eh     change        0.2046595E+02 Eh
   gradient norm :   291.7919253 Eh/α   predicted    -0.5385765E+01 (-126.32%)
   displ. norm   :     0.5015148 α      lambda       -0.1461792E+03
   maximum displ.:     0.4219700 α      in ANC's #1, #62, #66, ...

........................................................................
.............................. CYCLE    7 ..............................
........................................................................

 iter      E             dE          RMSdq      gap      omega  full diag
   1    -42.3348706 -0.423349E+02  0.114E+00    1.26       0.0  T
   2    -42.3348624  0.816310E-05  0.764E-01    1.91       1.0  T
   3    -42.3423367 -0.747422E-02  0.539E-01    1.35       1.0  T
   4    -42.3478928 -0.555617E-02  0.196E-01    1.60       1.0  T
   5    -42.3485369 -0.644073E-03  0.653E-02    1.55       1.0  T
   6    -42.3486508 -0.113945E-03  0.267E-02    1.55       1.0  T
   7    -42.3486635 -0.126589E-04  0.977E-03    1.55       2.0  T
   8    -42.3486642 -0.739722E-06  0.337E-03    1.55       5.9  T
   9    -42.3486643 -0.743563E-07  0.106E-03    1.55      18.9  T
  10    -42.3486643 -0.197048E-07  0.397E-04    1.55      50.3  T
  11    -42.3486643 -0.194343E-08  0.158E-04    1.55     126.7  T
     SCC iter.                  ...        0 min,  0.015 sec
     gradient                   ...        0 min,  0.012 sec
 * total energy  :   -58.9768378 Eh     change       -0.2216657E+02 Eh
   gradient norm :     1.8102198 Eh/α   predicted    -0.9147290E+02 ( 312.66%)
   displ. norm   :     0.4343148 α      lambda       -0.4638807E+00
   maximum displ.:     0.2029523 α      in ANC's #66, #49, #38, ...

........................................................................
.............................. CYCLE    8 ..............................
........................................................................

 iter      E             dE          RMSdq      gap      omega  full diag
   1    -42.3216033 -0.423216E+02  0.142E+00    2.27       0.0  T
   2    -42.3155861  0.601721E-02  0.110E+00    1.76       1.0  T
   3    -42.3489003 -0.333142E-01  0.557E-01    2.24       1.0  T
   4    -42.3534219 -0.452167E-02  0.235E-01    1.95       1.0  T
   5    -42.3544020 -0.980024E-03  0.889E-02    2.10       1.0  T
   6    -42.3546395 -0.237590E-03  0.210E-02    2.07       1.0  T
   7    -42.3546426 -0.307985E-05  0.999E-03    2.07       2.0  T
   8    -42.3546432 -0.528710E-06  0.442E-03    2.07       4.5  T
   9    -42.3546433 -0.985398E-07  0.117E-03    2.07      17.1  T
  10    -42.3546433 -0.136482E-07  0.502E-04    2.07      39.8  T
  11    -42.3546433 -0.128736E-09  0.211E-04    2.07      94.7  T
     SCC iter.                  ...        0 min,  0.016 sec
     gradient                   ...        0 min,  0.011 sec
 * total energy  :   -59.1177778 Eh     change       -0.1409399E+00 Eh
   gradient norm :     1.6420943 Eh/α   predicted    -0.2757071E+00 (  95.62%)
   displ. norm   :     0.9397315 α      lambda       -0.7295046E+00
   maximum displ.:     0.3184644 α      in ANC's #42, #34, #58, ...

........................................................................
.............................. CYCLE    9 ..............................
........................................................................

 iter      E             dE          RMSdq      gap      omega  full diag
   1    -41.8844740 -0.418845E+02  0.292E+00    0.51       0.0  T
   2    -41.7041258  0.180348E+00  0.402E+00    1.44       1.0  T
   3    -42.2636225 -0.559497E+00  0.162E+00    1.60       1.0  T
   4    -42.2834563 -0.198338E-01  0.107E+00    1.27       1.0  T
   5    -42.3059217 -0.224654E-01  0.467E-01    1.22       1.0  T
   6    -42.3116501 -0.572843E-02  0.188E-01    1.16       1.0  T
   7    -42.3121153 -0.465192E-03  0.111E-01    1.24       1.0  T
   8    -42.3125050 -0.389636E-03  0.506E-02    1.21       1.0  T
   9    -42.3125431 -0.381320E-04  0.274E-02    1.22       1.0  T
  10    -42.3125539 -0.107683E-04  0.148E-02    1.22       1.4  T
  11    -42.3125602 -0.628719E-05  0.239E-03    1.22       8.4  T
  12    -42.3125602 -0.468290E-07  0.134E-03    1.22      15.0  T
  13    -42.3125602 -0.103057E-07  0.538E-04    1.22      37.1  T
  14    -42.3125602 -0.976870E-08  0.162E-04    1.22     123.2  T
     SCC iter.                  ...        0 min,  0.019 sec
     gradient                   ...        0 min,  0.012 sec
 * total energy  :   -59.2439229 Eh     change       -0.1261451E+00 Eh
   gradient norm :     2.3714442 Eh/α   predicted    -0.6868648E+00 ( 444.50%)
   displ. norm   :     0.4627110 α      lambda       -0.3105420E+00
   maximum displ.:     0.2206941 α      in ANC's #66, #1, #38, ...

........................................................................
.............................. CYCLE   10 ..............................
........................................................................

 iter      E             dE          RMSdq      gap      omega  full diag
   1    -42.3416299 -0.423416E+02  0.896E-01    1.39       0.0  T
   2    -42.3365292  0.510067E-02  0.783E-01    1.29       1.0  T
   3    -42.3474917 -0.109625E-01  0.385E-01    1.37       1.0  T
   4    -42.3479994 -0.507689E-03  0.215E-01    1.32       1.0  T
   5    -42.3491825 -0.118304E-02  0.704E-02    1.33       1.0  T
   6    -42.3493545 -0.172074E-03  0.288E-02    1.34       1.0  T
   7    -42.3493668 -0.123129E-04  0.122E-02    1.34       1.6  T
   8    -42.3493700 -0.311245E-05  0.285E-03    1.34       7.0  T
   9    -42.3493701 -0.158417E-06  0.136E-03    1.34      14.7  T
  10    -42.3493701 -0.204371E-07  0.845E-04    1.34      23.7  T
  11    -42.3493701 -0.165641E-07  0.215E-04    1.34      93.2  T
     SCC iter.                  ...        0 min,  0.016 sec
     gradient                   ...        0 min,  0.011 sec
 * total energy  :   -59.3335971 Eh     change       -0.8967423E-01 Eh
   gradient norm :     1.4963950 Eh/α   predicted    -0.1885162E+00 ( 110.22%)
   displ. norm   :     0.1469891 α      lambda       -0.5676370E-01
   maximum displ.:     0.0563986 α      in ANC's #42, #48, #34, ...

........................................................................
.............................. CYCLE   11 ..............................
........................................................................

 iter      E             dE          RMSdq      gap      omega  full diag
   1    -42.3729975 -0.423730E+02  0.260E-01    1.41       0.0  T
   2    -42.3731638 -0.166311E-03  0.158E-01    1.40       1.0  T
   3    -42.3733224 -0.158513E-03  0.110E-01    1.40       1.0  T
   4    -42.3732641  0.582907E-04  0.639E-02    1.40       1.0  T
   5    -42.3734287 -0.164682E-03  0.148E-02    1.40       1.4  T
   6    -42.3734366 -0.781741E-05  0.454E-03    1.40       4.4  T
   7    -42.3734367 -0.104273E-06  0.316E-03    1.40       6.3  T
   8    -42.3734368 -0.177289E-06  0.101E-03    1.40      19.8  T
   9    -42.3734369 -0.206730E-07  0.557E-04    1.40      35.9  T
  10    -42.3734369 -0.584495E-08  0.207E-04    1.40      96.7  T
     SCC iter.                  ...        0 min,  0.014 sec
     gradient                   ...        0 min,  0.011 sec
 * total energy  :   -59.3804951 Eh     change       -0.4689799E-01 Eh
   gradient norm :     1.1282797 Eh/α   predicted    -0.2899433E-01 ( -38.18%)
   displ. norm   :     0.4333382 α      lambda       -0.1087397E+00
   maximum displ.:     0.1660985 α      in ANC's #42, #48, #17, ...

........................................................................
.............................. CYCLE   12 ..............................
........................................................................

 iter      E             dE          RMSdq      gap      omega  full diag
   1    -42.4353876 -0.424354E+02  0.677E-01    1.53       0.0  T
   2    -42.4367639 -0.137625E-02  0.399E-01    1.44       1.0  T
   3    -42.4375587 -0.794867E-03  0.254E-01    1.51       1.0  T
   4    -42.4376786 -0.119842E-03  0.103E-01    1.46       1.0  T
   5    -42.4380057 -0.327133E-03  0.232E-02    1.48       1.0  T
   6    -42.4380172 -0.115148E-04  0.976E-03    1.48       2.0  T
   7    -42.4380184 -0.117342E-05  0.439E-03    1.48       4.6  T
   8    -42.4380188 -0.357375E-06  0.146E-03    1.48      13.7  T
   9    -42.4380188 -0.278118E-07  0.976E-04    1.48      20.5  T
  10    -42.4380188 -0.209861E-07  0.251E-04    1.48      79.6  T
     SCC iter.                  ...        0 min,  0.015 sec
     gradient                   ...        0 min,  0.011 sec
 * total energy  :   -59.4601494 Eh     change       -0.7965426E-01 Eh
   gradient norm :     1.2214667 Eh/α   predicted    -0.6457993E-01 ( -18.92%)
   displ. norm   :     0.4499539 α      lambda       -0.7308813E-01
   maximum displ.:     0.1953659 α      in ANC's #43, #48, #17, ...

........................................................................
.............................. CYCLE   13 ..............................
........................................................................

 iter      E             dE          RMSdq      gap      omega  full diag
   1    -42.4617076 -0.424617E+02  0.663E-01    1.44       0.0  T
   2    -42.4623214 -0.613828E-03  0.376E-01    1.38       1.0  T
   3    -42.4620177  0.303701E-03  0.265E-01    1.45       1.0  T
   4    -42.4627193 -0.701582E-03  0.863E-02    1.39       1.0  T
   5    -42.4629380 -0.218708E-03  0.131E-02    1.42       1.5  T
   6    -42.4629386 -0.603026E-06  0.652E-03    1.41       3.1  T
   7    -42.4629392 -0.586004E-06  0.347E-03    1.42       5.8  T
   8    -42.4629395 -0.262821E-06  0.919E-04    1.41      21.8  T
   9    -42.4629395 -0.859711E-08  0.444E-04    1.41      45.1  T
     SCC iter.                  ...        0 min,  0.024 sec
     gradient                   ...        0 min,  0.013 sec
 * total energy  :   -59.5074735 Eh     change       -0.4732414E-01 Eh
   gradient norm :     0.8362785 Eh/α   predicted    -0.4394266E-01 (  -7.15%)
   displ. norm   :     0.2788358 α      lambda       -0.2851761E-01
   maximum displ.:     0.1024828 α      in ANC's #43, #17, #42, ...

........................................................................
.............................. CYCLE   14 ..............................
........................................................................

 iter      E             dE          RMSdq      gap      omega  full diag
   1    -42.4777987 -0.424778E+02  0.361E-01    1.28       0.0  T
   2    -42.4778720 -0.732851E-04  0.213E-01    1.29       1.0  T
   3    -42.4777284  0.143599E-03  0.825E-02    1.28       1.0  T
   4    -42.4779016 -0.173227E-03  0.207E-02    1.29       1.0  T
   5    -42.4779107 -0.913420E-05  0.597E-03    1.29       3.4  T
   6    -42.4779105  0.206057E-06  0.474E-03    1.29       4.2  T
   7    -42.4779111 -0.554073E-06  0.877E-04    1.29      22.8  T
   8    -42.4779111 -0.767491E-08  0.453E-04    1.29      44.1  T
     SCC iter.                  ...        0 min,  0.012 sec
     gradient                   ...        0 min,  0.011 sec
 * total energy  :   -59.5280016 Eh     change       -0.2052807E-01 Eh
   gradient norm :     0.8516626 Eh/α   predicted    -0.1536727E-01 ( -25.14%)
   displ. norm   :     0.2770198 α      lambda       -0.3399526E-01
   maximum displ.:     0.1031653 α      in ANC's #43, #31, #17, ...

........................................................................
.............................. CYCLE   15 ..............................
........................................................................

 iter      E             dE          RMSdq      gap      omega  full diag
   1    -42.4873537 -0.424874E+02  0.338E-01    1.11       0.0  T
   2    -42.4874009 -0.472842E-04  0.207E-01    1.13       1.0  T
   3    -42.4869417  0.459208E-03  0.133E-01    1.10       1.0  T
   4    -42.4874840 -0.542312E-03  0.208E-02    1.14       1.0  T
   5    -42.4874920 -0.794143E-05  0.848E-03    1.13       2.4  T
   6    -42.4874927 -0.743437E-06  0.521E-03    1.13       3.8  T
   7    -42.4874933 -0.561465E-06  0.139E-03    1.13      14.4  T
   8    -42.4874933 -0.265003E-07  0.433E-04    1.13      46.2  T
   9    -42.4874933 -0.145930E-08  0.257E-04    1.13      77.7  T
     SCC iter.                  ...        0 min,  0.013 sec
     gradient                   ...        0 min,  0.011 sec
 * total energy  :   -59.5545904 Eh     change       -0.2658882E-01 Eh
   gradient norm :     0.5560487 Eh/α   predicted    -0.1830230E-01 ( -31.17%)
   displ. norm   :     0.3879849 α      lambda       -0.4759844E-01
   maximum displ.:     0.1606775 α      in ANC's #31, #34, #17, ...

........................................................................
.............................. CYCLE   16 ..............................
........................................................................

 iter      E             dE          RMSdq      gap      omega  full diag
   1    -42.5044161 -0.425044E+02  0.436E-01    0.92       0.0  T
   2    -42.5046379 -0.221769E-03  0.287E-01    0.96       1.0  T
   3    -42.5045000  0.137871E-03  0.190E-01    0.92       1.0  T
   4    -42.5051673 -0.667306E-03  0.387E-02    0.96       1.0  T
   5    -42.5051956 -0.282931E-04  0.157E-02    0.95       1.3  T
   6    -42.5051975 -0.186805E-05  0.864E-03    0.95       2.3  T
   7    -42.5051984 -0.947938E-06  0.469E-03    0.95       4.3  T
   8    -42.5051991 -0.673354E-06  0.141E-03    0.95      14.2  T
   9    -42.5051991 -0.541865E-07  0.479E-04    0.95      41.7  T
  10    -42.5051991 -0.105030E-08  0.230E-04    0.95      87.1  T
     SCC iter.                  ...        0 min,  0.014 sec
     gradient                   ...        0 min,  0.011 sec
 * total energy  :   -59.5836623 Eh     change       -0.2907185E-01 Eh
   gradient norm :     0.9321190 Eh/α   predicted    -0.2738142E-01 (  -5.81%)
   displ. norm   :     0.2464827 α      lambda       -0.2979806E-01
   maximum displ.:     0.1003366 α      in ANC's #31, #43, #34, ...

........................................................................
.............................. CYCLE   17 ..............................
........................................................................

 iter      E             dE          RMSdq      gap      omega  full diag
   1    -42.5004807 -0.425005E+02  0.265E-01    0.86       0.0  T
   2    -42.5005609 -0.802313E-04  0.167E-01    0.88       1.0  T
   3    -42.5003184  0.242489E-03  0.999E-02    0.86       1.0  T
   4    -42.5006351 -0.316639E-03  0.292E-02    0.88       1.0  T
   5    -42.5006553 -0.202146E-04  0.148E-02    0.87       1.4  T
   6    -42.5006601 -0.482825E-05  0.580E-03    0.88       3.5  T
   7    -42.5006606 -0.488969E-06  0.214E-03    0.87       9.4  T
   8    -42.5006607 -0.914788E-07  0.553E-04    0.87      36.2  T
   9    -42.5006607 -0.185589E-08  0.315E-04    0.87      63.5  T
     SCC iter.                  ...        0 min,  0.013 sec
     gradient                   ...        0 min,  0.011 sec
 * total energy  :   -59.5974735 Eh     change       -0.1381121E-01 Eh
   gradient norm :     0.2595869 Eh/α   predicted    -0.1580405E-01 (  14.43%)
   displ. norm   :     0.1338281 α      lambda       -0.1199021E-01
   maximum displ.:     0.0573775 α      in ANC's #31, #34, #38, ...

........................................................................
.............................. CYCLE   18 ..............................
........................................................................

 iter      E             dE          RMSdq      gap      omega  full diag
   1    -42.5146395 -0.425146E+02  0.163E-01    0.96       0.0  T
   2    -42.5146389  0.653104E-06  0.114E-01    0.91       1.0  T
   3    -42.5147142 -0.753482E-04  0.745E-02    0.96       1.0  T
   4    -42.5147633 -0.491272E-04  0.380E-02    0.92       1.0  T
   5    -42.5148069 -0.435709E-04  0.109E-02    0.93       1.8  T
   6    -42.5148101 -0.314842E-05  0.370E-03    0.93       5.4  T
   7    -42.5148101 -0.431241E-07  0.183E-03    0.93      10.9  T
   8    -42.5148101 -0.393992E-07  0.475E-04    0.93      42.1  T
   9    -42.5148101 -0.466070E-08  0.205E-04    0.93      97.5  T
     SCC iter.                  ...        0 min,  0.013 sec
     gradient                   ...        0 min,  0.011 sec
 * total energy  :   -59.6066399 Eh     change       -0.9166386E-02 Eh
   gradient norm :     0.4628386 Eh/α   predicted    -0.6102781E-02 ( -33.42%)
   displ. norm   :     0.2305808 α      lambda       -0.1889197E-01
   maximum displ.:     0.0950299 α      in ANC's #31, #38, #42, ...

........................................................................
.............................. CYCLE   19 ..............................
........................................................................

 iter      E             dE          RMSdq      gap      omega  full diag
   1    -42.5433998 -0.425434E+02  0.307E-01    1.18       0.0  T
   2    -42.5434194 -0.196479E-04  0.221E-01    1.04       1.0  T
   3    -42.5441510 -0.731561E-03  0.130E-01    1.14       1.0  T
   4    -42.5442629 -0.111858E-03  0.552E-02    1.08       1.0  T
   5    -42.5443454 -0.825024E-04  0.185E-02    1.11       1.1  T
   6    -42.5443559 -0.104922E-04  0.600E-03    1.10       3.3  T
   7    -42.5443561 -0.230225E-06  0.305E-03    1.10       6.6  T
   8    -42.5443562 -0.968597E-07  0.815E-04    1.10      24.5  T
   9    -42.5443562 -0.868842E-08  0.379E-04    1.10      52.8  T
     SCC iter.                  ...        0 min,  0.013 sec
     gradient                   ...        0 min,  0.011 sec
 * total energy  :   -59.6201469 Eh     change       -0.1350703E-01 Eh
   gradient norm :     0.5727191 Eh/α   predicted    -0.9948147E-02 ( -26.35%)
   displ. norm   :     0.2661808 α      lambda       -0.1590619E-01
   maximum displ.:     0.1145606 α      in ANC's #31, #38, #42, ...

........................................................................
.............................. CYCLE   20 ..............................
........................................................................

 iter      E             dE          RMSdq      gap      omega  full diag
   1    -42.5690668 -0.425691E+02  0.266E-01    1.24       0.0  T
   2    -42.5691357 -0.688996E-04  0.165E-01    1.17       1.0  T
   3    -42.5691372 -0.151218E-05  0.123E-01    1.24       1.0  T
   4    -42.5693830 -0.245801E-03  0.319E-02    1.18       1.0  T
   5    -42.5694088 -0.257205E-04  0.109E-02    1.20       1.8  T
   6    -42.5694115 -0.275801E-05  0.479E-03    1.20       4.2  T
   7    -42.5694118 -0.302425E-06  0.205E-03    1.20       9.8  T
   8    -42.5694119 -0.611061E-07  0.502E-04    1.20      39.8  T
   9    -42.5694119 -0.200564E-08  0.204E-04    1.20      98.1  T
     SCC iter.                  ...        0 min,  0.013 sec
     gradient                   ...        0 min,  0.011 sec
 * total energy  :   -59.6321075 Eh     change       -0.1196063E-01 Eh
   gradient norm :     0.5670870 Eh/α   predicted    -0.8516600E-02 ( -28.79%)
   displ. norm   :     0.3010532 α      lambda       -0.1562074E-01
   maximum displ.:     0.1297441 α      in ANC's #38, #31, #42, ...
 * RMSD in coord.:     1.0849381 α      energy gain  -0.1710280E+02 Eh

generating ANC from model Hessian ...
Using Lindh-Hessian (1995)
 Shifting diagonal of input Hessian by    6.6503065952753532E-003
 Lowest  eigenvalues of input Hessian
    0.000000    0.000000    0.000000    0.000000    0.000000    0.000000
    0.010000    0.011621    0.011903    0.014584    0.016868    0.017208
    0.020199    0.020761    0.028632    0.031145    0.035526    0.040608
 Highest eigenvalues
    2.275221    2.300661    2.401141    2.480447   16.979313   20.130399


........................................................................
.............................. CYCLE   21 ..............................
........................................................................

 iter      E             dE          RMSdq      gap      omega  full diag
   1    -42.5868568 -0.425869E+02  0.259E-01    1.22       0.0  T
   2    -42.5869382 -0.814213E-04  0.156E-01    1.21       1.0  T
   3    -42.5867937  0.144555E-03  0.917E-02    1.23       1.0  T
   4    -42.5869495 -0.155864E-03  0.336E-02    1.20       1.0  T
   5    -42.5869943 -0.447559E-04  0.733E-03    1.22       2.7  T
   6    -42.5869950 -0.753661E-06  0.349E-03    1.21       5.7  T
   7    -42.5869952 -0.112448E-06  0.158E-03    1.21      12.6  T
   8    -42.5869952 -0.593881E-07  0.520E-04    1.21      38.4  T
   9    -42.5869952 -0.457652E-08  0.226E-04    1.21      88.6  T
     SCC iter.                  ...        0 min,  0.013 sec
     gradient                   ...        0 min,  0.011 sec
 * total energy  :   -59.6435560 Eh     change       -0.1144847E-01 Eh
   gradient norm :     0.5341808 Eh/α   predicted     0.0000000E+00 (-100.00%)
   displ. norm   :     0.3676535 α      lambda       -0.1549243E+00
   maximum displ.:     0.1906110 α      in ANC's #45, #62, #63, ...

........................................................................
.............................. CYCLE   22 ..............................
........................................................................

 iter      E             dE          RMSdq      gap      omega  full diag
   1    -42.5848029 -0.425848E+02  0.398E-01    1.31       0.0  T
   2    -42.5846262  0.176735E-03  0.260E-01    1.19       1.0  T
   3    -42.5847656 -0.139445E-03  0.210E-01    1.34       1.0  T
   4    -42.5856356 -0.869997E-03  0.658E-02    1.25       1.0  T
   5    -42.5857016 -0.659152E-04  0.167E-02    1.27       1.2  T
   6    -42.5857029 -0.130065E-05  0.888E-03    1.26       2.3  T
   7    -42.5857034 -0.565164E-06  0.256E-03    1.26       7.8  T
   8    -42.5857036 -0.149368E-06  0.689E-04    1.26      29.0  T
   9    -42.5857036 -0.322557E-08  0.414E-04    1.26      48.3  T
     SCC iter.                  ...        0 min,  0.013 sec
     gradient                   ...        0 min,  0.011 sec
 * total energy  :   -56.9431431 Eh     change        0.2700413E+01 Eh
   gradient norm :    29.3432659 Eh/α   predicted    -0.8793939E-01 (-103.26%)
   displ. norm   :     0.2493331 α      lambda       -0.7308296E+01
   maximum displ.:     0.1751498 α      in ANC's #62, #63, #45, ...

........................................................................
.............................. CYCLE   23 ..............................
........................................................................

 iter      E             dE          RMSdq      gap      omega  full diag
   1    -42.6129216 -0.426129E+02  0.285E-01    1.28       0.0  T
   2    -42.6129849 -0.632821E-04  0.160E-01    1.30       1.0  T
   3    -42.6126899  0.294921E-03  0.122E-01    1.24       1.0  T
   4    -42.6130230 -0.333026E-03  0.384E-02    1.30       1.0  T
   5    -42.6130603 -0.373915E-04  0.902E-03    1.28       2.2  T
   6    -42.6130605 -0.194985E-06  0.527E-03    1.28       3.8  T
   7    -42.6130608 -0.300044E-06  0.150E-03    1.28      13.3  T
   8    -42.6130609 -0.431636E-07  0.450E-04    1.28      44.4  T
   9    -42.6130609 -0.302229E-09  0.284E-04    1.28      70.3  T
     SCC iter.                  ...        0 min,  0.013 sec
     gradient                   ...        0 min,  0.016 sec
 * total energy  :   -59.6610324 Eh     change       -0.2717889E+01 Eh
   gradient norm :     0.6262753 Eh/α   predicted    -0.3881315E+01 (  42.81%)
   displ. norm   :     0.4285158 α      lambda       -0.2883245E-01
   maximum displ.:     0.2033478 α      in ANC's #8, #4, #11, ...

........................................................................
.............................. CYCLE   24 ..............................
........................................................................

 iter      E             dE          RMSdq      gap      omega  full diag
   1    -42.6233700 -0.426234E+02  0.313E-01    1.41       0.0  T
   2    -42.6233532  0.167813E-04  0.213E-01    1.31       1.0  T
   3    -42.6230117  0.341558E-03  0.162E-01    1.43       1.0  T
   4    -42.6236397 -0.627989E-03  0.327E-02    1.35       1.0  T
   5    -42.6236699 -0.302500E-04  0.828E-03    1.36       2.4  T
   6    -42.6236709 -0.988212E-06  0.341E-03    1.36       5.9  T
   7    -42.6236710 -0.556101E-07  0.122E-03    1.36      16.3  T
   8    -42.6236710 -0.164937E-07  0.767E-04    1.36      26.1  T
   9    -42.6236710 -0.117404E-07  0.189E-04    1.36     105.9  T
     SCC iter.                  ...        0 min,  0.013 sec
     gradient                   ...        0 min,  0.011 sec
 * total energy  :   -59.6840597 Eh     change       -0.2302731E-01 Eh
   gradient norm :     0.3728395 Eh/α   predicted    -0.1706412E-01 ( -25.90%)
   displ. norm   :     0.4723423 α      lambda       -0.3186824E-01
   maximum displ.:     0.2018165 α      in ANC's #11, #4, #8, ...

........................................................................
.............................. CYCLE   25 ..............................
........................................................................

 iter      E             dE          RMSdq      gap      omega  full diag
   1    -42.6446450 -0.426446E+02  0.345E-01    1.54       0.0  T
   2    -42.6447597 -0.114668E-03  0.247E-01    1.39       1.0  T
   3    -42.6448037 -0.440318E-04  0.160E-01    1.52       1.0  T
   4    -42.6451561 -0.352405E-03  0.597E-02    1.44       1.0  T
   5    -42.6452571 -0.101038E-03  0.110E-02    1.46       1.8  T
   6    -42.6452589 -0.172468E-05  0.550E-03    1.46       3.6  T
   7    -42.6452592 -0.297435E-06  0.243E-03    1.46       8.2  T
   8    -42.6452593 -0.155994E-06  0.932E-04    1.46      21.5  T
   9    -42.6452593 -0.733810E-08  0.346E-04    1.46      57.9  T
     SCC iter.                  ...        0 min,  0.013 sec
     gradient                   ...        0 min,  0.011 sec
 * total energy  :   -59.6988178 Eh     change       -0.1475806E-01 Eh
   gradient norm :     0.6595329 Eh/α   predicted    -0.1948916E-01 (  32.06%)
   displ. norm   :     0.3192203 α      lambda       -0.9586859E-02
   maximum displ.:     0.2283923 α      in ANC's #4, #8, #1, ...

........................................................................
.............................. CYCLE   26 ..............................
........................................................................

 iter      E             dE          RMSdq      gap      omega  full diag
   1    -42.6454068 -0.426454E+02  0.132E-01    1.46       0.0  T
   2    -42.6454094 -0.259014E-05  0.832E-02    1.48       1.0  T
   3    -42.6453184  0.910210E-04  0.658E-02    1.44       1.0  T
   4    -42.6454287 -0.110293E-03  0.127E-02    1.47       1.6  T
   5    -42.6454340 -0.535199E-05  0.378E-03    1.47       5.3  T
   6    -42.6454342 -0.114958E-06  0.186E-03    1.47      10.8  T
   7    -42.6454342 -0.327226E-07  0.770E-04    1.47      26.0  T
   8    -42.6454342 -0.128319E-07  0.219E-04    1.47      91.3  T
     SCC iter.                  ...        0 min,  0.012 sec
     gradient                   ...        0 min,  0.011 sec
 * total energy  :   -59.7051847 Eh     change       -0.6366893E-02 Eh
   gradient norm :     0.3018286 Eh/α   predicted    -0.5281966E-02 ( -17.04%)
   displ. norm   :     0.4853601 α      lambda       -0.8054169E-02
   maximum displ.:     0.3556274 α      in ANC's #4, #8, #1, ...

........................................................................
.............................. CYCLE   27 ..............................
........................................................................

 iter      E             dE          RMSdq      gap      omega  full diag
   1    -42.6540526 -0.426541E+02  0.161E-01    1.52       0.0  T
   2    -42.6540684 -0.157731E-04  0.935E-02    1.51       1.0  T
   3    -42.6539904  0.780287E-04  0.605E-02    1.50       1.0  T
   4    -42.6540854 -0.950371E-04  0.137E-02    1.51       1.5  T
   5    -42.6540902 -0.485469E-05  0.585E-03    1.50       3.4  T
   6    -42.6540905 -0.232868E-06  0.329E-03    1.51       6.1  T
   7    -42.6540907 -0.229964E-06  0.600E-04    1.50      33.3  T
   8    -42.6540907 -0.903007E-09  0.282E-04    1.50      71.0  T
     SCC iter.                  ...        0 min,  0.012 sec
     gradient                   ...        0 min,  0.011 sec
 * total energy  :   -59.7118051 Eh     change       -0.6620454E-02 Eh
   gradient norm :     0.2183749 Eh/α   predicted    -0.4975791E-02 ( -24.84%)
   displ. norm   :     0.5650746 α      lambda       -0.9093829E-02
   maximum displ.:     0.4197356 α      in ANC's #4, #8, #11, ...

........................................................................
.............................. CYCLE   28 ..............................
........................................................................

 iter      E             dE          RMSdq      gap      omega  full diag
   1    -42.6660840 -0.426661E+02  0.216E-01    1.56       0.0  T
   2    -42.6661263 -0.422606E-04  0.128E-01    1.55       1.0  T
   3    -42.6660281  0.981387E-04  0.770E-02    1.54       1.0  T
   4    -42.6661466 -0.118493E-03  0.242E-02    1.55       1.0  T
   5    -42.6661644 -0.177559E-04  0.651E-03    1.54       3.1  T
   6    -42.6661644 -0.105474E-07  0.401E-03    1.55       5.0  T
   7    -42.6661648 -0.365335E-06  0.940E-04    1.55      21.3  T
   8    -42.6661648 -0.121313E-07  0.489E-04    1.55      40.9  T
     SCC iter.                  ...        0 min,  0.012 sec
     gradient                   ...        0 min,  0.011 sec
 * total energy  :   -59.7189830 Eh     change       -0.7177926E-02 Eh
   gradient norm :     0.2195655 Eh/α   predicted    -0.5998861E-02 ( -16.43%)
   displ. norm   :     0.5372394 α      lambda       -0.6579968E-02
   maximum displ.:     0.4144928 α      in ANC's #4, #8, #11, ...

........................................................................
.............................. CYCLE   29 ..............................
........................................................................

 iter      E             dE          RMSdq      gap      omega  full diag
   1    -42.6746136 -0.426746E+02  0.214E-01    1.57       0.0  T
   2    -42.6746346 -0.210712E-04  0.128E-01    1.58       1.0  T
   3    -42.6744587  0.175957E-03  0.908E-02    1.54       1.0  T
   4    -42.6746636 -0.204874E-03  0.227E-02    1.58       1.0  T
   5    -42.6746773 -0.137472E-04  0.486E-03    1.57       4.1  T
   6    -42.6746773  0.375291E-07  0.237E-03    1.57       8.4  T
   7    -42.6746774 -0.102973E-06  0.652E-04    1.57      30.7  T
   8    -42.6746774 -0.509491E-08  0.348E-04    1.57      57.4  T
     SCC iter.                  ...        0 min,  0.012 sec
     gradient                   ...        0 min,  0.012 sec
 * total energy  :   -59.7238943 Eh     change       -0.4911233E-02 Eh
   gradient norm :     0.2296271 Eh/α   predicted    -0.4239625E-02 ( -13.67%)
   displ. norm   :     0.5017697 α      lambda       -0.4026788E-02
   maximum displ.:     0.3971653 α      in ANC's #4, #8, #1, ...

........................................................................
.............................. CYCLE   30 ..............................
........................................................................

 iter      E             dE          RMSdq      gap      omega  full diag
   1    -42.6766726 -0.426767E+02  0.173E-01    1.55       0.0  T
   2    -42.6766591  0.134601E-04  0.109E-01    1.59       1.0  T
   3    -42.6765083  0.150771E-03  0.935E-02    1.52       1.0  T
   4    -42.6767317 -0.223382E-03  0.102E-02    1.56       2.0  T
   5    -42.6767340 -0.229797E-05  0.401E-03    1.56       5.0  T
   6    -42.6767341 -0.649449E-07  0.214E-03    1.56       9.4  T
   7    -42.6767342 -0.929330E-07  0.641E-04    1.56      31.2  T
   8    -42.6767342 -0.708982E-08  0.286E-04    1.56      69.8  T
     SCC iter.                  ...        0 min,  0.012 sec
     gradient                   ...        0 min,  0.011 sec
 * total energy  :   -59.7268724 Eh     change       -0.2978082E-02 Eh
   gradient norm :     0.1048528 Eh/α   predicted    -0.2520346E-02 ( -15.37%)
   displ. norm   :     0.4453940 α      lambda       -0.2468887E-02
   maximum displ.:     0.3509782 α      in ANC's #4, #1, #7, ...

........................................................................
.............................. CYCLE   31 ..............................
........................................................................

 iter      E             dE          RMSdq      gap      omega  full diag
   1    -42.6804032 -0.426804E+02  0.144E-01    1.54       0.0  T
   2    -42.6803926  0.105906E-04  0.911E-02    1.58       1.0  T
   3    -42.6803154  0.771638E-04  0.787E-02    1.52       1.0  T
   4    -42.6804621 -0.146636E-03  0.122E-02    1.56       1.6  T
   5    -42.6804653 -0.323005E-05  0.325E-03    1.56       6.2  T
   6    -42.6804653 -0.138325E-07  0.168E-03    1.56      11.9  T
   7    -42.6804653 -0.376592E-07  0.464E-04    1.56      43.1  T
   8    -42.6804653 -0.232531E-08  0.227E-04    1.56      88.0  T
     SCC iter.                  ...        0 min,  0.012 sec
     gradient                   ...        0 min,  0.011 sec
 * total energy  :   -59.7284798 Eh     change       -0.1607459E-02 Eh
   gradient norm :     0.1405866 Eh/α   predicted    -0.1479335E-02 (  -7.97%)
   displ. norm   :     0.4321054 α      lambda       -0.2118513E-02
   maximum displ.:     0.3250485 α      in ANC's #4, #1, #6, ...

........................................................................
.............................. CYCLE   32 ..............................
........................................................................

 iter      E             dE          RMSdq      gap      omega  full diag
   1    -42.6757268 -0.426757E+02  0.158E-01    1.52       0.0  T
   2    -42.6757112  0.155931E-04  0.101E-01    1.56       1.0  T
   3    -42.6755625  0.148771E-03  0.900E-02    1.50       1.0  T
   4    -42.6757846 -0.222138E-03  0.812E-03    1.54       2.5  T
   5    -42.6757857 -0.105942E-05  0.349E-03    1.54       5.7  T
   6    -42.6757858 -0.962835E-07  0.158E-03    1.54      12.7  T
   7    -42.6757858 -0.151800E-07  0.624E-04    1.54      32.0  T
   8    -42.6757858 -0.626410E-08  0.266E-04    1.54      75.1  T
     SCC iter.                  ...        0 min,  0.012 sec
     gradient                   ...        0 min,  0.011 sec
 * total energy  :   -59.7294078 Eh     change       -0.9279800E-03 Eh
   gradient norm :     0.0445413 Eh/α   predicted    -0.1257116E-02 (  35.47%)
   displ. norm   :     0.2290180 α      lambda       -0.1718590E-02
   maximum displ.:     0.1046943 α      in ANC's #4, #7, #8, ...

........................................................................
.............................. CYCLE   33 ..............................
........................................................................

 iter      E             dE          RMSdq      gap      omega  full diag
   1    -42.6837833 -0.426838E+02  0.135E-01    1.52       0.0  T
   2    -42.6837922 -0.891505E-05  0.804E-02    1.53       1.0  T
   3    -42.6836903  0.101968E-03  0.634E-02    1.51       1.0  T
   4    -42.6838142 -0.123945E-03  0.157E-02    1.53       1.3  T
   5    -42.6838191 -0.489152E-05  0.355E-03    1.52       5.6  T
   6    -42.6838193 -0.206784E-06  0.206E-03    1.53       9.7  T
   7    -42.6838193 -0.456238E-07  0.680E-04    1.53      29.4  T
   8    -42.6838194 -0.744620E-08  0.216E-04    1.53      92.5  T
     SCC iter.                  ...        0 min,  0.012 sec
     gradient                   ...        0 min,  0.011 sec
 * total energy  :   -59.7298988 Eh     change       -0.4910517E-03 Eh
   gradient norm :     0.1375184 Eh/α   predicted    -0.9043898E-03 (  84.17%)
   displ. norm   :     0.2441162 α      lambda       -0.1664164E-02
   maximum displ.:     0.1359791 α      in ANC's #4, #1, #9, ...

........................................................................
.............................. CYCLE   34 ..............................
........................................................................

 iter      E             dE          RMSdq      gap      omega  full diag
   1    -42.6842424 -0.426842E+02  0.855E-02    1.52       0.0  T
   2    -42.6842440 -0.164628E-05  0.539E-02    1.54       1.0  T
   3    -42.6842242  0.197973E-04  0.442E-02    1.51       1.0  T
   4    -42.6842693 -0.451050E-04  0.116E-02    1.53       1.7  T
   5    -42.6842720 -0.266171E-05  0.226E-03    1.53       8.8  T
   6    -42.6842720 -0.686135E-07  0.116E-03    1.53      17.2  T
   7    -42.6842720 -0.707325E-08  0.479E-04    1.53      41.8  T
   8    -42.6842720 -0.346634E-08  0.185E-04    1.53     108.3  T
     SCC iter.                  ...        0 min,  0.012 sec
     gradient                   ...        0 min,  0.013 sec
 * total energy  :   -59.7308262 Eh     change       -0.9273508E-03 Eh
   gradient norm :     0.0792499 Eh/α   predicted    -0.8816756E-03 (  -4.93%)
   displ. norm   :     0.1846960 α      lambda       -0.8845310E-03
   maximum displ.:     0.1071154 α      in ANC's #8, #9, #12, ...

........................................................................
.............................. CYCLE   35 ..............................
........................................................................

 iter      E             dE          RMSdq      gap      omega  full diag
   1    -42.6842195 -0.426842E+02  0.701E-02    1.54       0.0  T
   2    -42.6842256 -0.608062E-05  0.430E-02    1.53       1.0  T
   3    -42.6842174  0.816243E-05  0.277E-02    1.54       1.0  T
   4    -42.6842338 -0.163152E-04  0.795E-03    1.54       2.5  T
   5    -42.6842353 -0.155175E-05  0.203E-03    1.53       9.9  T
   6    -42.6842354 -0.638443E-07  0.114E-03    1.53      17.6  T
   7    -42.6842354 -0.173630E-07  0.352E-04    1.53      56.9  T
   8    -42.6842354 -0.155165E-08  0.149E-04    1.53     134.1  T
     SCC iter.                  ...        0 min,  0.012 sec
     gradient                   ...        0 min,  0.011 sec
 * total energy  :   -59.7314815 Eh     change       -0.6553114E-03 Eh
   gradient norm :     0.0771940 Eh/α   predicted    -0.4573686E-03 ( -30.21%)
   displ. norm   :     0.3639083 α      lambda       -0.1214594E-02
   maximum displ.:     0.1977495 α      in ANC's #8, #9, #7, ...

........................................................................
.............................. CYCLE   36 ..............................
........................................................................

 iter      E             dE          RMSdq      gap      omega  full diag
   1    -42.6809367 -0.426809E+02  0.151E-01    1.53       0.0  T
   2    -42.6809586 -0.218951E-04  0.903E-02    1.54       1.0  T
   3    -42.6808551  0.103468E-03  0.664E-02    1.52       1.0  T
   4    -42.6809808 -0.125720E-03  0.195E-02    1.55       1.0  T
   5    -42.6809897 -0.888342E-05  0.367E-03    1.54       5.5  T
   6    -42.6809899 -0.207486E-06  0.200E-03    1.54      10.0  T
   7    -42.6809900 -0.420796E-07  0.528E-04    1.54      37.9  T
   8    -42.6809900 -0.456465E-08  0.220E-04    1.54      91.0  T
     SCC iter.                  ...        0 min,  0.012 sec
     gradient                   ...        0 min,  0.011 sec
 * total energy  :   -59.7321695 Eh     change       -0.6879430E-03 Eh
   gradient norm :     0.0727821 Eh/α   predicted    -0.6877231E-03 (  -0.03%)
   displ. norm   :     0.2004304 α      lambda       -0.5860939E-03
   maximum displ.:     0.1492957 α      in ANC's #8, #9, #12, ...

........................................................................
.............................. CYCLE   37 ..............................
........................................................................

 iter      E             dE          RMSdq      gap      omega  full diag
   1    -42.6847118 -0.426847E+02  0.936E-02    1.55       0.0  T
   2    -42.6847230 -0.111959E-04  0.580E-02    1.53       1.0  T
   3    -42.6847114  0.116048E-04  0.360E-02    1.56       1.0  T
   4    -42.6847330 -0.215649E-04  0.108E-02    1.54       1.9  T
   5    -42.6847364 -0.344576E-05  0.273E-03    1.54       7.3  T
   6    -42.6847366 -0.165140E-06  0.116E-03    1.54      17.3  T
   7    -42.6847366 -0.680631E-08  0.485E-04    1.54      41.2  T
   8    -42.6847366 -0.358830E-08  0.177E-04    1.54     112.7  T
     SCC iter.                  ...        0 min,  0.011 sec
     gradient                   ...        0 min,  0.011 sec
 * total energy  :   -59.7325653 Eh     change       -0.3958560E-03 Eh
   gradient norm :     0.0603928 Eh/α   predicted    -0.3048269E-03 ( -23.00%)
   displ. norm   :     0.2712302 α      lambda       -0.7708875E-03
   maximum displ.:     0.1763956 α      in ANC's #8, #9, #7, ...

........................................................................
.............................. CYCLE   38 ..............................
........................................................................

 iter      E             dE          RMSdq      gap      omega  full diag
   1    -42.6856385 -0.426856E+02  0.113E-01    1.55       0.0  T
   2    -42.6856465 -0.802202E-05  0.661E-02    1.55       1.0  T
   3    -42.6856187  0.278069E-04  0.318E-02    1.54       1.0  T
   4    -42.6856480 -0.292897E-04  0.109E-02    1.56       1.8  T
   5    -42.6856513 -0.335839E-05  0.191E-03    1.55      10.5  T
   6    -42.6856514 -0.275007E-07  0.126E-03    1.55      15.8  T
   7    -42.6856514 -0.226572E-07  0.322E-04    1.55      62.1  T
   8    -42.6856514 -0.172261E-08  0.145E-04    1.55     137.6  T
     SCC iter.                  ...        0 min,  0.012 sec
     gradient                   ...        0 min,  0.011 sec
 * total energy  :   -59.7331370 Eh     change       -0.5717430E-03 Eh
   gradient norm :     0.0357171 Eh/α   predicted    -0.4138034E-03 ( -27.62%)
   displ. norm   :     0.3520763 α      lambda       -0.9626226E-03
   maximum displ.:     0.2356762 α      in ANC's #8, #9, #7, ...

........................................................................
.............................. CYCLE   39 ..............................
........................................................................

 iter      E             dE          RMSdq      gap      omega  full diag
   1    -42.6878292 -0.426878E+02  0.148E-01    1.58       0.0  T
   2    -42.6878352 -0.598094E-05  0.857E-02    1.57       1.0  T
   3    -42.6878018  0.333932E-04  0.362E-02    1.58       1.0  T
   4    -42.6878404 -0.385419E-04  0.512E-03    1.57       3.9  T
   5    -42.6878408 -0.474090E-06  0.234E-03    1.57       8.5  T
   6    -42.6878408 -0.216785E-08  0.165E-03    1.57      12.1  T
   7    -42.6878409 -0.711522E-07  0.303E-04    1.57      65.9  T
   8    -42.6878409 -0.383451E-09  0.157E-04    1.57     127.5  T
     SCC iter.                  ...        0 min,  0.012 sec
     gradient                   ...        0 min,  0.011 sec
 * total energy  :   -59.7337968 Eh     change       -0.6597214E-03 Eh
   gradient norm :     0.0857215 Eh/α   predicted    -0.5409880E-03 ( -18.00%)
   displ. norm   :     0.3345602 α      lambda       -0.8303876E-03
   maximum displ.:     0.2138870 α      in ANC's #8, #9, #3, ...

........................................................................
.............................. CYCLE   40 ..............................
........................................................................

 iter      E             dE          RMSdq      gap      omega  full diag
   1    -42.6870528 -0.426871E+02  0.151E-01    1.61       0.0  T
   2    -42.6870608 -0.801526E-05  0.871E-02    1.59       1.0  T
   3    -42.6870072  0.535798E-04  0.446E-02    1.62       1.0  T
   4    -42.6870664 -0.591763E-04  0.102E-02    1.59       2.0  T
   5    -42.6870687 -0.232794E-05  0.321E-03    1.59       6.2  T
   6    -42.6870688 -0.848460E-07  0.176E-03    1.59      11.4  T
   7    -42.6870689 -0.578775E-07  0.419E-04    1.59      47.7  T
   8    -42.6870689 -0.162228E-08  0.241E-04    1.59      83.1  T
     SCC iter.                  ...        0 min,  0.012 sec
     gradient                   ...        0 min,  0.011 sec
 * total energy  :   -59.7343068 Eh     change       -0.5100757E-03 Eh
   gradient norm :     0.0410137 Eh/α   predicted    -0.4616719E-03 (  -9.49%)
   displ. norm   :     0.2634938 α      lambda       -0.5311803E-03
   maximum displ.:     0.1546345 α      in ANC's #8, #9, #7, ...

........................................................................
.............................. CYCLE   41 ..............................
........................................................................

 iter      E             dE          RMSdq      gap      omega  full diag
   1    -42.6857025 -0.426857E+02  0.105E-01    1.62       0.0  T
   2    -42.6857149 -0.124210E-04  0.615E-02    1.61       1.0  T
   3    -42.6856934  0.214626E-04  0.382E-02    1.61       1.0  T
   4    -42.6857226 -0.291890E-04  0.102E-02    1.61       2.0  T
   5    -42.6857256 -0.298855E-05  0.278E-03    1.61       7.2  T
   6    -42.6857258 -0.154380E-06  0.122E-03    1.61      16.4  T
   7    -42.6857258 -0.138945E-07  0.470E-04    1.61      42.5  T
   8    -42.6857258 -0.299652E-08  0.183E-04    1.61     109.5  T
     SCC iter.                  ...        0 min,  0.012 sec
     gradient                   ...        0 min,  0.011 sec
 * total energy  :   -59.7346121 Eh     change       -0.3052856E-03 Eh
   gradient norm :     0.1108749 Eh/α   predicted    -0.2840355E-03 (  -6.96%)
   displ. norm   :     0.1776850 α      lambda       -0.7110158E-03
   maximum displ.:     0.0781114 α      in ANC's #3, #12, #1, ...

........................................................................
.............................. CYCLE   42 ..............................
........................................................................

 iter      E             dE          RMSdq      gap      omega  full diag
   1    -42.6902332 -0.426902E+02  0.817E-02    1.64       0.0  T
   2    -42.6902425 -0.927187E-05  0.488E-02    1.61       1.0  T
   3    -42.6902320  0.105403E-04  0.326E-02    1.64       1.0  T
   4    -42.6902528 -0.208513E-04  0.899E-03    1.62       2.2  T
   5    -42.6902547 -0.183920E-05  0.250E-03    1.62       8.0  T
   6    -42.6902547 -0.614407E-07  0.153E-03    1.62      13.1  T
   7    -42.6902548 -0.344656E-07  0.432E-04    1.62      46.3  T
   8    -42.6902548 -0.430788E-08  0.186E-04    1.62     107.6  T
     SCC iter.                  ...        0 min,  0.012 sec
     gradient                   ...        0 min,  0.011 sec
 * total energy  :   -59.7350390 Eh     change       -0.4268594E-03 Eh
   gradient norm :     0.0833715 Eh/α   predicted    -0.3667485E-03 ( -14.08%)
   displ. norm   :     0.3264073 α      lambda       -0.1103135E-02
   maximum displ.:     0.1687008 α      in ANC's #8, #9, #3, ...
 * RMSD in coord.:     0.8692091 α      energy gain  -0.1029315E+00 Eh

generating ANC from model Hessian ...
Using Lindh-Hessian (1995)
 Shifting diagonal of input Hessian by    6.3472929471741170E-003
 Lowest  eigenvalues of input Hessian
    0.000000    0.000000    0.000000    0.000000    0.000000    0.000000
    0.010000    0.011474    0.011921    0.013388    0.017231    0.017748
    0.020996    0.024106    0.027093    0.032153    0.033226    0.038737
 Highest eigenvalues
    2.203879    2.373657    2.406558    2.534190   17.402026   21.670381


........................................................................
.............................. CYCLE   43 ..............................
........................................................................

 iter      E             dE          RMSdq      gap      omega  full diag
   1    -42.6878483 -0.426878E+02  0.143E-01    1.64       0.0  T
   2    -42.6878613 -0.130174E-04  0.840E-02    1.62       1.0  T
   3    -42.6878130  0.483579E-04  0.467E-02    1.64       1.0  T
   4    -42.6878745 -0.615931E-04  0.606E-03    1.62       3.3  T
   5    -42.6878752 -0.648194E-06  0.252E-03    1.62       7.9  T
   6    -42.6878752 -0.254850E-07  0.129E-03    1.62      15.5  T
   7    -42.6878752 -0.108575E-07  0.298E-04    1.62      67.1  T
   8    -42.6878752 -0.119492E-08  0.131E-04    1.62     152.6  T
     SCC iter.                  ...        0 min,  0.011 sec
     gradient                   ...        0 min,  0.011 sec
 * total energy  :   -59.7356054 Eh     change       -0.5664128E-03 Eh
   gradient norm :     0.0533795 Eh/α   predicted     0.0000000E+00 (-100.00%)
   displ. norm   :     0.1645911 α      lambda       -0.2177548E-02
   maximum displ.:     0.1226837 α      in ANC's #2, #9, #4, ...

........................................................................
.............................. CYCLE   44 ..............................
........................................................................

 iter      E             dE          RMSdq      gap      omega  full diag
   1    -42.6851113 -0.426851E+02  0.790E-02    1.63       0.0  T
   2    -42.6851155 -0.419859E-05  0.493E-02    1.62       1.0  T
   3    -42.6850961  0.193824E-04  0.353E-02    1.64       1.0  T
   4    -42.6851225 -0.263940E-04  0.776E-03    1.62       2.6  T
   5    -42.6851243 -0.177415E-05  0.262E-03    1.63       7.6  T
   6    -42.6851243 -0.215182E-07  0.144E-03    1.62      13.9  T
   7    -42.6851244 -0.420892E-07  0.361E-04    1.63      55.4  T
   8    -42.6851244 -0.839790E-09  0.182E-04    1.63     110.0  T
     SCC iter.                  ...        0 min,  0.011 sec
     gradient                   ...        0 min,  0.011 sec
 * total energy  :   -59.7241170 Eh     change        0.1148840E-01 Eh
   gradient norm :     1.0680874 Eh/α   predicted    -0.1118271E-02 (-109.73%)
   displ. norm   :     0.0747841 α      lambda       -0.2584527E-01
   maximum displ.:     0.0410446 α      in ANC's #2, #9, #63, ...

........................................................................
.............................. CYCLE   45 ..............................
........................................................................

 iter      E             dE          RMSdq      gap      omega  full diag
   1    -42.6864727 -0.426865E+02  0.498E-02    1.62       0.0  T
   2    -42.6864779 -0.520167E-05  0.295E-02    1.62       1.0  T
   3    -42.6864757  0.216672E-05  0.151E-02    1.62       1.3  T
   4    -42.6864789 -0.320704E-05  0.458E-03    1.62       4.4  T
   5    -42.6864795 -0.595856E-06  0.168E-03    1.62      11.9  T
   6    -42.6864796 -0.518784E-07  0.932E-04    1.62      21.5  T
   7    -42.6864796 -0.924788E-08  0.385E-04    1.62      51.9  T
     SCC iter.                  ...        0 min,  0.010 sec
     gradient                   ...        0 min,  0.024 sec
 * total energy  :   -59.7369204 Eh     change       -0.1280342E-01 Eh
   gradient norm :     0.0273632 Eh/α   predicted    -0.1299496E-01 (   1.50%)
   displ. norm   :     0.1780644 α      lambda       -0.6371222E-03
   maximum displ.:     0.1561721 α      in ANC's #2, #4, #9, ...

........................................................................
.............................. CYCLE   46 ..............................
........................................................................

 iter      E             dE          RMSdq      gap      omega  full diag
   1    -42.6879178 -0.426879E+02  0.482E-02    1.64       0.0  T
   2    -42.6879123  0.543641E-05  0.357E-02    1.61       1.0  T
   3    -42.6879279 -0.156129E-04  0.225E-02    1.63       1.0  T
   4    -42.6879339 -0.595907E-05  0.346E-03    1.63       5.8  T
   5    -42.6879342 -0.314077E-06  0.108E-03    1.63      18.5  T
   6    -42.6879342 -0.367876E-08  0.540E-04    1.63      37.0  T
   7    -42.6879342 -0.261964E-08  0.200E-04    1.63      99.9  T
     SCC iter.                  ...        0 min,  0.023 sec
     gradient                   ...        0 min,  0.024 sec
 * total energy  :   -59.7374792 Eh     change       -0.5587449E-03 Eh
   gradient norm :     0.0267263 Eh/α   predicted    -0.3286953E-03 ( -41.17%)
   displ. norm   :     0.3889924 α      lambda       -0.1281087E-02
   maximum displ.:     0.3414697 α      in ANC's #2, #4, #9, ...

........................................................................
.............................. CYCLE   47 ..............................
........................................................................

 iter      E             dE          RMSdq      gap      omega  full diag
   1    -42.6908626 -0.426909E+02  0.112E-01    1.67       0.0  T
   2    -42.6908410  0.216089E-04  0.781E-02    1.61       1.0  T
   3    -42.6909092 -0.681894E-04  0.540E-02    1.66       1.0  T
   4    -42.6909461 -0.369695E-04  0.925E-03    1.64       2.2  T
   5    -42.6909485 -0.241289E-05  0.246E-03    1.64       8.1  T
   6    -42.6909486 -0.241133E-07  0.128E-03    1.64      15.6  T
   7    -42.6909486 -0.129828E-07  0.479E-04    1.64      41.7  T
   8    -42.6909486 -0.419131E-08  0.194E-04    1.64     103.0  T
     SCC iter.                  ...        0 min,  0.012 sec
     gradient                   ...        0 min,  0.011 sec
 * total energy  :   -59.7384027 Eh     change       -0.9235464E-03 Eh
   gradient norm :     0.0466511 Eh/α   predicted    -0.7374805E-03 ( -20.15%)
   displ. norm   :     0.3389028 α      lambda       -0.6886733E-03
   maximum displ.:     0.3042063 α      in ANC's #2, #4, #9, ...

........................................................................
.............................. CYCLE   48 ..............................
........................................................................

 iter      E             dE          RMSdq      gap      omega  full diag
   1    -42.6915946 -0.426916E+02  0.998E-02    1.67       0.0  T
   2    -42.6915860  0.868194E-05  0.662E-02    1.63       1.0  T
   3    -42.6916111 -0.251658E-04  0.493E-02    1.67       1.0  T
   4    -42.6916459 -0.347494E-04  0.880E-03    1.65       2.3  T
   5    -42.6916481 -0.223934E-05  0.194E-03    1.65      10.3  T
   6    -42.6916481 -0.740023E-08  0.991E-04    1.65      20.2  T
   7    -42.6916481 -0.973240E-08  0.345E-04    1.65      58.0  T
     SCC iter.                  ...        0 min,  0.010 sec
     gradient                   ...        0 min,  0.011 sec
 * total energy  :   -59.7388871 Eh     change       -0.4843324E-03 Eh
   gradient norm :     0.0635737 Eh/α   predicted    -0.3838915E-03 ( -20.74%)
   displ. norm   :     0.2613780 α      lambda       -0.5409725E-03
   maximum displ.:     0.2252814 α      in ANC's #2, #8, #11, ...

........................................................................
.............................. CYCLE   49 ..............................
........................................................................

 iter      E             dE          RMSdq      gap      omega  full diag
   1    -42.6933032 -0.426933E+02  0.886E-02    1.68       0.0  T
   2    -42.6933040 -0.805594E-06  0.565E-02    1.64       1.0  T
   3    -42.6933068 -0.284449E-05  0.430E-02    1.68       1.0  T
   4    -42.6933346 -0.278212E-04  0.959E-03    1.66       2.1  T
   5    -42.6933373 -0.272120E-05  0.156E-03    1.66      12.8  T
   6    -42.6933374 -0.191539E-07  0.878E-04    1.66      22.8  T
   7    -42.6933374 -0.691935E-08  0.290E-04    1.66      68.9  T
     SCC iter.                  ...        0 min,  0.010 sec
     gradient                   ...        0 min,  0.011 sec
 * total energy  :   -59.7393107 Eh     change       -0.4236595E-03 Eh
   gradient norm :     0.0498336 Eh/α   predicted    -0.2890149E-03 ( -31.78%)
   displ. norm   :     0.3170050 α      lambda       -0.7375551E-03
   maximum displ.:     0.2355099 α      in ANC's #2, #8, #7, ...

........................................................................
.............................. CYCLE   50 ..............................
........................................................................

 iter      E             dE          RMSdq      gap      omega  full diag
   1    -42.6946291 -0.426946E+02  0.121E-01    1.69       0.0  T
   2    -42.6946387 -0.959515E-05  0.766E-02    1.65       1.0  T
   3    -42.6946141  0.246296E-04  0.546E-02    1.69       1.0  T
   4    -42.6946666 -0.525003E-04  0.135E-02    1.66       1.5  T
   5    -42.6946719 -0.536838E-05  0.220E-03    1.67       9.1  T
   6    -42.6946720 -0.499636E-07  0.117E-03    1.67      17.1  T
   7    -42.6946720 -0.929811E-08  0.422E-04    1.67      47.4  T
   8    -42.6946720 -0.354616E-08  0.175E-04    1.67     114.5  T
     SCC iter.                  ...        0 min,  0.011 sec
     gradient                   ...        0 min,  0.011 sec
 * total energy  :   -59.7398831 Eh     change       -0.5724054E-03 Eh
   gradient norm :     0.0307632 Eh/α   predicted    -0.4058676E-03 ( -29.09%)
   displ. norm   :     0.3721698 α      lambda       -0.7851079E-03
   maximum displ.:     0.2119682 α      in ANC's #2, #8, #10, ...

........................................................................
.............................. CYCLE   51 ..............................
........................................................................

 iter      E             dE          RMSdq      gap      omega  full diag
   1    -42.6949165 -0.426949E+02  0.153E-01    1.70       0.0  T
   2    -42.6949272 -0.106837E-04  0.938E-02    1.66       1.0  T
   3    -42.6948509  0.762873E-04  0.641E-02    1.71       1.0  T
   4    -42.6949509 -0.100017E-03  0.128E-02    1.68       1.6  T
   5    -42.6949554 -0.450838E-05  0.261E-03    1.68       7.7  T
   6    -42.6949555 -0.518739E-07  0.135E-03    1.68      14.8  T
   7    -42.6949555 -0.230823E-07  0.459E-04    1.68      43.5  T
   8    -42.6949555 -0.341391E-08  0.221E-04    1.68      90.5  T
     SCC iter.                  ...        0 min,  0.012 sec
     gradient                   ...        0 min,  0.011 sec
 * total energy  :   -59.7404892 Eh     change       -0.6061128E-03 Eh
   gradient norm :     0.0416889 Eh/α   predicted    -0.4469326E-03 ( -26.26%)
   displ. norm   :     0.3731515 α      lambda       -0.8525960E-03
   maximum displ.:     0.2419297 α      in ANC's #8, #10, #23, ...

........................................................................
.............................. CYCLE   52 ..............................
........................................................................

 iter      E             dE          RMSdq      gap      omega  full diag
   1    -42.6945929 -0.426946E+02  0.161E-01    1.70       0.0  T
   2    -42.6946043 -0.114697E-04  0.964E-02    1.68       1.0  T
   3    -42.6945611  0.431996E-04  0.417E-02    1.71       1.0  T
   4    -42.6946105 -0.493251E-04  0.969E-03    1.68       2.1  T
   5    -42.6946128 -0.237803E-05  0.290E-03    1.69       6.9  T
   6    -42.6946129 -0.749159E-07  0.148E-03    1.69      13.5  T
   7    -42.6946129 -0.334636E-07  0.442E-04    1.69      45.2  T
   8    -42.6946130 -0.270943E-08  0.250E-04    1.69      79.9  T
     SCC iter.                  ...        0 min,  0.012 sec
     gradient                   ...        0 min,  0.011 sec
 * total energy  :   -59.7410606 Eh     change       -0.5713856E-03 Eh
   gradient norm :     0.0212617 Eh/α   predicted    -0.4856785E-03 ( -15.00%)
[...]
H            3.63494770796347       -0.55126156985881       -0.54462651567261
H            3.78232983716764       -0.75603669948017        0.82211904193600
H           -1.60575313114480        3.10161586360415        0.15787967855703
H           -2.85782757927500        2.17488818997904       -0.72167249972256
H           -2.80459214158391        2.11082081725977        1.04139055119897
H           -1.37919005983199       -3.20405934650518        0.80234485398101
H           -1.38893267540576       -3.14020806232012       -0.98232427623741
H           -2.74840603172384       -2.46912559553414       -0.05672479715091
H            0.80393442745247       -3.16387130403281       -0.09048913590000

 Bond Distances (Angstroems)
 ---------------------------
C1-N2=1.3994         C1-C3=1.5362         C1-H15=1.0840        C1-H16=1.0862        N2-C1=1.3994         N2-C3=1.4473         
N2-C6=1.2914         C3-C1=1.5362         C3-N2=1.4473         C3-H17=0.4243        C3-H18=1.1254        N4-C5=1.2711         
N4-H25=1.0101        C5-N4=1.2711         C5-C6=1.4570         C5-N13=1.3790        C6-N2=1.2914         C6-C5=1.4570         
C6-C7=1.4785         C7-C6=1.4785         C7-O8=1.2105         C7-N9=1.3719         O8-C7=1.2105         N9-C7=1.3719         
N9-C10=1.4529        N9-C11=1.3922        C10-N9=1.4529        C10-H19=1.0877       C10-H20=1.0908       C10-H21=1.0909       
C11-N9=1.3922        C11-O12=1.2015       C11-N13=1.3907       O12-C11=1.2015       N13-C5=1.3790        N13-C11=1.3907       
N13-C14=1.4533       C14-N13=1.4533       C14-H22=1.0914       C14-H23=1.0914       C14-H24=1.0887       H15-C1=1.0840        
H16-C1=1.0862        H17-C3=0.4243        H18-C3=1.1254        H19-C10=1.0877       H20-C10=1.0908       H21-C10=1.0909       
H22-C14=1.0914       H23-C14=1.0914       H24-C14=1.0887       H25-N4=1.0101        
 C  H  Rav=1.0261 sigma=0.2009  Rmin=0.4243  Rmax=1.1254    10
 C  C  Rav=1.4905 sigma=0.0334  Rmin=1.4570  Rmax=1.5362     3
 N  H  Rav=1.0101 sigma=0.0000  Rmin=1.0101  Rmax=1.0101     1
 N  C  Rav=1.3849 sigma=0.0595  Rmin=1.2711  Rmax=1.4533    10
 O  C  Rav=1.2060 sigma=0.0045  Rmin=1.2015  Rmax=1.2105     2

 selected bond angles (degree)
 --------------------
C3-C1-N2= 58.86                H15-C1-N2=117.33               H15-C1-C3=121.82               H16-C1-N2=116.59               
H16-C1-C3=118.30               H16-C1-H15=113.28              C3-N2-C1= 65.29                C6-N2-C1=146.76                
C6-N2-C3=147.93                N2-C3-C1= 55.85                H17-C3-C1=123.81               H17-C3-N2=122.47               
H18-C3-C1=109.58               H18-C3-N2=107.62               H18-C3-H17=120.52              H25-N4-C5=120.00               
C6-C5-N4=116.92                N13-C5-N4=127.02               N13-C5-C6=116.06               C5-C6-N2=120.29                
C7-C6-N2=118.03                C7-C6-C5=121.68                O8-C7-C6=121.49                N9-C7-C6=114.51                
N9-C7-O8=124.00                C10-N9-C7=118.51               C11-N9-C7=125.90               C11-N9-C10=115.59              
H19-C10-N9=108.41              H20-C10-N9=109.82              H20-C10-H19=110.41             H21-C10-N9=109.81              
H21-C10-H19=110.38             H21-C10-H20=108.00             

 selected dihedral angles (degree)
 ---------------------------------
C3-N2-C1-H15=247.59           C3-N2-C1-H16=108.48           C6-N2-C1-C3=181.67            C6-N2-C1-H15= 69.26           
C6-N2-C1-H16=290.15           N2-C3-C1-H15=104.85           N2-C3-C1-H16=254.42           H17-C3-C1-N2=109.05           
H17-C3-C1-H15=213.90          H17-C3-C1-H16=  3.47          H18-C3-C1-N2=261.55           H18-C3-C1-H15=  6.40          
H18-C3-C1-H16=155.97          C1-C3-N2-C6=178.27            H17-C3-N2-C1=248.57           H17-C3-N2-C6= 66.85           
H18-C3-N2-C1=102.09           H18-C3-N2-C6=280.37           C6-C5-N4-H25=179.93           N13-C5-N4-H25=359.95          
C5-C6-N2-C1=179.89            C5-C6-N2-C3=  2.75            C7-C6-N2-C1=  0.04            C7-C6-N2-C3=182.91            
N2-C6-C5-N4=  1.76            N2-C6-C5-N13=181.74           C7-C6-C5-N4=181.60            C7-C6-C5-N13=  1.58           
O8-C7-C6-N2=359.22            O8-C7-C6-C5=179.37            N9-C7-C6-N2=179.09            N9-C7-C6-C5=359.25            
C10-N9-C7-C6=180.09           C10-N9-C7-O8=359.97           C11-N9-C7-C6=359.40           C11-N9-C7-O8=179.27           
H19-C10-N9-C7=  0.03          H19-C10-N9-C11=180.65         H20-C10-N9-C7=120.73          H20-C10-N9-C11=301.36         
H21-C10-N9-C7=239.36          H21-C10-N9-C11= 59.98         
           -------------------------------------------------
          |                Final Singlepoint                |
           -------------------------------------------------

          ...................................................
          :                      SETUP                      :
          :.................................................:
          :  # basis functions                  67          :
          :  # atomic orbitals                  67          :
          :  # shells                           39          :
          :  # electrons                        74          :
          :  max. iterations                   250          :
          :  Hamiltonian                  GFN2-xTB          :
          :  restarted?                      false          :
          :  GBSA solvation                  false          :
          :  PC potential                    false          :
          :  electronic temp.         5000.0000000     K    :
          :  accuracy                    1.0000000          :
          :  -> integral cutoff          0.2500000E+02      :
          :  -> integral neglect         0.1000000E-07      :
          :  -> SCF convergence          0.1000000E-05 Eh   :
          :  -> wf. convergence          0.1000000E-03 e    :
          :  Broyden damping             0.4000000          :
          ...................................................

 iter      E             dE          RMSdq      gap      omega  full diag
   1    -42.6968674 -0.426969E+02  0.837E-05    1.71       0.0  T
   2    -42.6968674 -0.112266E-10  0.704E-05    1.71     284.2  T
   3    -42.6968674 -0.981544E-10  0.318E-05    1.71     629.2  T

   *** convergence criteria satisfied after 3 iterations ***

         #    Occupation            Energy/Eh            Energy/eV
      -------------------------------------------------------------
         1        2.0000           -0.8963833             -24.3918
       ...           ...                  ...                  ...
        31        1.9961           -0.6286228             -17.1057
        32        1.9921           -0.6175671             -16.8049
        33        1.9706           -0.5965638             -16.2333
        34        1.9498           -0.5879136             -15.9979
        35        1.9399           -0.5849738             -15.9179
        36        1.8897           -0.5749332             -15.6447
        37        1.8634           -0.5713278             -15.5466 (HOMO)
        38        0.4068           -0.5083389             -13.8326 (LUMO)
        39        0.0006           -0.4007754             -10.9057
        40        0.0003           -0.3901721             -10.6171
        41        0.0000           -0.3042531              -8.2791
        42        0.0000           -0.3020313              -8.2187
       ...           ...                  ...                  ...
        67                         10.7249147             291.8398
      -------------------------------------------------------------
                  HL-Gap            0.0629889 Eh            1.7140 eV
             Fermi-level           -0.5299540 Eh          -14.4208 eV

 SCC (total)                   0 d,  0 h,  0 min,  0.021 sec
 SCC setup                      ...        0 min,  0.000 sec (  0.889%)
 Dispersion                     ...        0 min,  0.000 sec (  0.922%)
 classical contributions        ...        0 min,  0.000 sec (  0.337%)
 integral evaluation            ...        0 min,  0.004 sec ( 20.776%)
 iterations                     ...        0 min,  0.005 sec ( 22.913%)
 molecular gradient             ...        0 min,  0.011 sec ( 53.539%)
 printout                       ...        0 min,  0.000 sec (  0.566%)

         :::::::::::::::::::::::::::::::::::::::::::::::::::::
         ::                     SUMMARY                     ::
         :::::::::::::::::::::::::::::::::::::::::::::::::::::
         :: total energy             -59.742545746711 Eh    ::
         :: gradient norm              0.001313527346 Eh/a0 ::
         :: HOMO-LUMO gap              1.714014727956 eV    ::
         ::.................................................::
         :: SCC energy               -42.696867412062 Eh    ::
         :: -> isotropic ES            0.140116819914 Eh    ::
         :: -> anisotropic ES         -0.003793240447 Eh    ::
         :: -> anisotropic XC          0.016261807606 Eh    ::
         :: -> dispersion             -0.021791955846 Eh    ::
         :: repulsion energy           2.269183666159 Eh    ::
         :: add. restraining         -19.314968513986 Eh    ::
         :: total charge               1.000000000000 e     ::
         :::::::::::::::::::::::::::::::::::::::::::::::::::::

           -------------------------------------------------
          |                Property Printout                |
           -------------------------------------------------

    * Orbital Energies and Occupations

         #    Occupation            Energy/Eh            Energy/eV
      -------------------------------------------------------------
         1        2.0000           -0.8963833             -24.3918
       ...           ...                  ...                  ...
        25        1.9994           -0.6590024             -17.9324
        26        1.9993           -0.6565620             -17.8660
        27        1.9989           -0.6483015             -17.6412
        28        1.9988           -0.6471792             -17.6106
        29        1.9981           -0.6398056             -17.4100
        30        1.9966           -0.6310102             -17.1707
        31        1.9961           -0.6286228             -17.1057
        32        1.9921           -0.6175671             -16.8049
        33        1.9706           -0.5965638             -16.2333
        34        1.9498           -0.5879136             -15.9979
        35        1.9399           -0.5849738             -15.9179
        36        1.8897           -0.5749332             -15.6447
        37        1.8634           -0.5713278             -15.5466 (HOMO)
        38        0.4068           -0.5083389             -13.8326 (LUMO)
        39        0.0006           -0.4007754             -10.9057
        40        0.0003           -0.3901721             -10.6171
        41        0.0000           -0.3042531              -8.2791
        42        0.0000           -0.3020313              -8.2187
        43                         -0.2182496              -5.9389
        44                         -0.1749971              -4.7619
        45                         -0.1399582              -3.8085
        46                         -0.0992415              -2.7005
        47                         -0.0689342              -1.8758
        48                         -0.0530560              -1.4437
       ...                                ...                  ...
        67                         10.7249147             291.8398
      -------------------------------------------------------------
                  HL-Gap            0.0629889 Eh            1.7140 eV
             Fermi-level           -0.5299540 Eh          -14.4208 eV

     #   Z          covCN         q      C6AA      α(0)
     1   6 C        3.737    -0.020    21.015     6.542
     2   7 N        2.747     0.080    19.847     6.617
     3   6 C        3.731    -0.066    21.860     6.674
     4   7 N        1.792    -0.286    28.249     7.873
     5   6 C        2.827     0.165    24.443     8.101
     6   6 C        2.900     0.040    27.098     8.535
     7   6 C        2.772     0.268    22.484     7.766
     8   8 O        0.858    -0.337    20.454     6.064
     9   7 N        2.740    -0.065    22.507     7.046
    10   6 C        3.707    -0.063    21.857     6.683
    11   6 C        2.716     0.323    21.513     7.593
    12   8 O        0.860    -0.335    20.422     6.059
    13   7 N        2.741    -0.069    22.584     7.058
    14   6 C        3.703    -0.064    21.892     6.690
    15   1 H        0.925     0.128     1.550     1.947
    16   1 H        0.925     0.131     1.528     1.933
    17   1 H        0.936     0.194     1.128     1.661
    18   1 H        0.919     0.122     1.596     1.976
    19   1 H        0.925     0.118     1.626     1.994
    20   1 H        0.924     0.113     1.672     2.022
    21   1 H        0.924     0.112     1.675     2.024
    22   1 H        0.924     0.093     1.849     2.126
    23   1 H        0.924     0.093     1.848     2.126
    24   1 H        0.925     0.123     1.586     1.969
    25   1 H        0.860     0.201     1.101     1.644

 Mol. C6AA /au·bohr⁶  :       6396.816491
 Mol. C8AA /au·bohr⁸  :     146769.559611
 Mol. α(0) /au        :        120.722125


Wiberg/Mayer (AO) data.
largest (>0.10) Wiberg bond orders for each atom

 ---------------------------------------------------------------------------
     #   Z sym  total        # sym  WBO       # sym  WBO       # sym  WBO
 ---------------------------------------------------------------------------
     1   6 C    3.888 --     2 N    0.985     3 C    0.962    15 H    0.944
                            16 H    0.939
     2   7 N    3.520 --     6 C    1.503     1 C    0.985     3 C    0.941
     3   6 C    3.845 --     1 C    0.962     2 N    0.941    17 H    0.940
                            18 H    0.926
     4   7 N    2.844 --     5 C    1.677    25 H    0.921    13 N    0.122
     5   6 C    3.947 --     4 N    1.677    13 N    1.122     6 C    1.057
     6   6 C    3.781 --     2 N    1.503     5 C    1.057     7 C    1.000
     7   6 C    3.930 --     8 O    1.684     9 N    1.151     6 C    1.000
     8   8 O    1.973 --     7 C    1.684     9 N    0.148
     9   7 N    3.523 --     7 C    1.151    11 C    1.079    10 C    0.974
                             8 O    0.148    12 O    0.104
    10   6 C    3.881 --     9 N    0.974    19 H    0.964    20 H    0.949
                            21 H    0.949
    11   6 C    3.949 --    12 O    1.696    13 N    1.091     9 N    1.079
    12   8 O    2.013 --    11 C    1.696    13 N    0.113     9 N    0.104
    13   7 N    3.492 --     5 C    1.122    11 C    1.091    14 C    0.978
                             4 N    0.122    12 O    0.113
    14   6 C    3.904 --    13 N    0.978    24 H    0.961    23 H    0.959
                            22 H    0.959
    15   1 H    0.973 --     1 C    0.944
    16   1 H    0.971 --     1 C    0.939
    17   1 H    0.959 --     3 C    0.940
    18   1 H    0.969 --     3 C    0.926
    19   1 H    0.981 --    10 C    0.964
    20   1 H    0.967 --    10 C    0.949
    21   1 H    0.967 --    10 C    0.949
    22   1 H    0.977 --    14 C    0.959
    23   1 H    0.978 --    14 C    0.959
    24   1 H    0.981 --    14 C    0.961
    25   1 H    0.951 --     4 N    0.921
 ---------------------------------------------------------------------------

Topologies differ in total number of bonds
Writing topology from bond orders to xtbtopo.mol

molecular dipole:
                 x           y           z       tot (Debye)
 q only:        2.060      -0.658      -0.043
   full:        1.768      -0.860       0.020       4.998
molecular quadrupole (traceless):
                xx          xy          yy          xz          yz          zz
 q only:       16.943       0.507       0.626      -0.482       0.329     -17.570
  q+dip:       10.981       1.621       0.790       0.707      -0.309     -11.771
   full:        9.963       1.449       0.373       0.639      -0.198     -10.336

           -------------------------------------------------
          |                Geometry Summary                 |
           -------------------------------------------------

      molecular mass/u    :      195.1988581
   center of mass at/Å    :        0.0249054       0.0229335      -0.0104940
  moments of inertia/u·Å² :        0.4654013E+03   0.7942172E+03   0.1247483E+04
rotational constants/cm⁻¹ :        0.3622171E-01   0.2122547E-01   0.1351332E-01

 * 23 selected distances

     #   Z          #   Z                                           value/Å
     1   6 C        2   7 N                                       1.3993710
     1   6 C        3   6 C                                       1.5361556 (max)
     2   7 N        3   6 C                                       1.4472809
     4   7 N        5   6 C                                       1.2711307
     2   7 N        6   6 C                                       1.2913919
     7   6 C        8   8 O                                       1.2104872
     7   6 C        9   7 N                                       1.3718640
     9   7 N       10   6 C                                       1.4528746
     9   7 N       11   6 C                                       1.3922236
    11   6 C       12   8 O                                       1.2015487
     5   6 C       13   7 N                                       1.3789911
    11   6 C       13   7 N                                       1.3907012
    13   7 N       14   6 C                                       1.4532798
     1   6 C       15   1 H                                       1.0840469
     1   6 C       16   1 H                                       1.0861551
     3   6 C       17   1 H                                       0.4243353 (min)
     3   6 C       18   1 H                                       1.1253949
    10   6 C       19   1 H                                       1.0876519
    10   6 C       20   1 H                                       1.0907786
    10   6 C       21   1 H                                       1.0908540
    14   6 C       22   1 H                                       1.0914226
    14   6 C       23   1 H                                       1.0913751
    14   6 C       24   1 H                                       1.0886948

 * 4 distinct bonds (by element types)

   Z      Z             #   av. dist./Å        max./Å        min./Å
   1 H    6 C          10     1.0260709     1.1253949     0.4243353
   6 C    6 C           1     1.5361556     1.5361556     1.5361556
   6 C    7 N          10     1.3849109     1.4532798     1.2711307
   6 C    8 O           2     1.2060180     1.2104872     1.2015487


optimized geometry written to: xtbopt.xyz


           -------------------------------------------------
          | TOTAL ENERGY              -59.742545746711 Eh   |
          | GRADIENT NORM               0.001313527346 Eh/α |
          | HOMO-LUMO GAP               1.714014727956 eV   |
           -------------------------------------------------

------------------------------------------------------------------------
 * finished run on 2024/06/05 at 19:58:07.102     
------------------------------------------------------------------------
 total:
 * wall-time:     0 d,  0 h,  0 min,  2.263 sec
 *  cpu-time:     0 d,  0 h,  0 min,  2.004 sec
 * ratio c/w:     0.886 speedup
 SCF:
 * wall-time:     0 d,  0 h,  0 min,  0.052 sec
 *  cpu-time:     0 d,  0 h,  0 min,  0.035 sec
 * ratio c/w:     0.678 speedup
 ANC optimizer:
 * wall-time:     0 d,  0 h,  0 min,  2.163 sec
 *  cpu-time:     0 d,  0 h,  0 min,  1.958 sec
 * ratio c/w:     0.905 speedup

