72
 energy: 0.000000000000 xtb: 6.6.1 (8d0f1dd)
N           -1.47310921155849        2.74401293103706        2.22063921685122
C           -1.55658879776851        2.16490285539332        1.13274273951491
C           -2.74549199786261        2.05621232186130        0.23826248438941
C           -3.31377553111525        0.64333411542669        0.32332512650568
C           -4.30230156009016        0.24487110156316       -0.58026161703006
C           -4.85238763031941       -1.02286490450319       -0.53363588718165
O           -5.81419972815119       -1.48606034185536       -1.36157882725342
C           -6.39655633239252       -0.60827000183299       -2.29568474302620
C           -4.39972501531283       -1.94646102182611        0.44396929121966
O           -4.98748311285188       -3.16145997157803        0.41085992006324
C           -4.66362127904578       -4.10093827755394        1.40909127743729
C           -3.42072513477031       -1.54561384810496        1.33436546260297
C           -2.88302799614223       -0.26315800396994        1.27400150770375
C           -2.19303798107274        2.30467000305896       -1.18742977106749
C           -1.26651538239283        1.17243369445008       -1.65249429687285
C            0.01082524939134        1.09745454476277       -0.89354803499847
N            0.61779393476578       -0.02034948052406       -0.57705522512502
C            2.00145210352228       -0.02376006389122       -0.15611399603240
C            2.92554934655222       -0.53865282675074       -1.27700088804721
C            4.35756843073516       -0.43050757231754       -0.83075544324989
C            5.07346135469827        0.73206409086248       -1.03980965825901
C            6.38627986649936        0.84224441421807       -0.60344822702769
C            7.00047264773336       -0.20824756335880        0.05722314418200
O            8.26703657141718       -0.21011313101264        0.52410943644933
C            9.06912227848686        0.92943601033931        0.31863058007678
C            6.27039964270142       -1.40439753960823        0.28033466008274
O            6.94829939911432       -2.38012925705718        0.92751999079483
C            6.31537317745639       -3.61583200086742        1.15217711710877
C            4.96302794628964       -1.49347471867959       -0.16064430359178
C           -0.05511211367372       -1.29906247805359       -0.62085686319744
C           -3.86758037025447        3.07992600430699        0.58498060215443
C           -4.49286159663096        2.77383493050346        1.94313289484366
C           -3.39165179876499        4.52917666589254        0.54797523472093
H           -4.66030026466202        0.94509067363451       -1.31640568823548
H           -6.85037928558380        0.25803162192116       -1.80468845313260
H           -7.17287442604349       -1.18600110843259       -2.79318157561361
H           -5.66836817451085       -0.26952966318766       -3.04040255244073
H           -4.88416720672258       -3.71589460520039        2.40913542187496
H           -5.29223570620378       -4.96637458756866        1.20969236903657
H           -3.61139813139015       -4.39919835331056        1.35529357841967
H           -3.07077796610445       -2.21868765711333        2.10002662693138
H           -2.14562754426994        0.02067850696302        2.01001344383370
H           -3.02188875377605        2.38238012313952       -1.88813545054866
H           -1.65198530896729        3.25146700677685       -1.20556284570283
H           -1.81103374245520        0.23006524641044       -1.62116301628650
H           -0.99335688527853        1.37490212198123       -2.69443256973690
H           -0.67628064361333        1.65183887049447        0.61785727145403
H            0.63525841192517        1.98466369793744       -0.92314021190751
H            2.11132552493482       -0.65949692842762        0.72532613231274
H            2.30680473056284        0.98978251704176        0.11078972794250
H            2.76694198818247        0.06750735147374       -2.17075252200790
H            2.67954581369920       -1.57455627803457       -1.51167743520200
H            4.62169998552446        1.56295612048703       -1.56123579000624
H            6.92357674630170        1.75715815945204       -0.79119596719031
H            8.65159112996149        1.81001823324363        0.81701555159939
H            9.20136171144928        1.14042857828877       -0.74698991949293
H           10.03428838009630        0.69003240176163        0.76064937965836
H            7.05567174969094       -4.23621171795340        1.65347565939075
H            5.43848001056755       -3.50813558175093        1.79970565785717
H            6.02060041905269       -4.09420497120334        0.21253282636366
H            4.40102758497114       -2.40127266373392       -0.00490198249042
H           -0.22071299714579       -1.61775583601871       -1.65116008982042
H           -1.01972258008625       -1.24102717432227       -0.10935206830928
H            0.55899954147532       -2.04486085926761       -0.12333730421426
H           -4.63991875734388        2.95501092798550       -0.18098088071825
H           -3.76095216473977        2.90314704960906        2.73380821053058
H           -4.87457614030224        1.75695641518947        1.97884603101694
H           -5.31925552549014        3.45579210326349        2.12325564252114
H           -2.60025590131176        4.69225046143352        1.27368918226171
H           -3.03987406413880        4.81897652321898       -0.43870975059559
H           -4.22191740670577        5.18069648090034        0.80616693961239
H           -0.59832433787845        2.77744694953323        2.72958984441332
72
 energy: -6.192659201263 xtb: 6.6.1 (8d0f1dd)
N           -1.47914973051542        2.77793681510459        2.22941583864523
C           -1.53383301761838        2.15612609292920        1.13913104737088
C           -2.73516866070668        2.06468194545345        0.24099936710004
C           -3.30617922256921        0.65382318824658        0.32438585699115
C           -4.29882871063146        0.25132898792431       -0.57227291972694
C           -4.84514678695832       -1.01665060827885       -0.52419208753301
O           -5.82082660645240       -1.48332276761169       -1.35275969727134
C           -6.39863141513428       -0.60362331831152       -2.28266081008956
C           -4.39124107968805       -1.93676177845757        0.44728975487032
O           -4.98670239690339       -3.16157286709871        0.41832405628233
C           -4.65493628673774       -4.09437995396899        1.41403242660050
C           -3.41125262744729       -1.53764858863984        1.33533545285817
C           -2.87540951380674       -0.25546844449503        1.27341538564016
C           -2.18949151316179        2.30799290976934       -1.19210175810799
C           -1.26282597953676        1.18298308004899       -1.68748006905984
C            0.02179480617029        1.11445375600132       -0.94779294583384
N            0.61867978707998       -0.06496615602494       -0.56351604139053
C            1.98366776055240       -0.05475168738108       -0.15049628209971
C            2.92317812882174       -0.56394784123693       -1.26335073937418
C            4.34452864592677       -0.44500104754154       -0.82020060931235
C            5.04767140680719        0.72939227130985       -1.01346771763094
C            6.35861719939357        0.85032646295839       -0.57717689838499
C            6.98171888916691       -0.20083662971725        0.07059991812110
O            8.26154572854215       -0.19564789647527        0.53817690530937
C            9.04383310820406        0.95198287125156        0.33547567782138
C            6.26726425197703       -1.40094999962294        0.28449432435759
O            6.96238227811555       -2.38200650412703        0.92456440630771
C            6.33599416622819       -3.61969585512901        1.13790072354854
C            4.96273105714983       -1.50364972747254       -0.15637152063413
C           -0.06410685952003       -1.31994106079171       -0.64997897447713
C           -3.85780006066952        3.08147140458723        0.58661176037934
C           -4.47905074403978        2.77901747278275        1.94942345892729
C           -3.38465585452000        4.53354494089956        0.54989442829446
H           -4.65570518276008        0.95007287608175       -1.31107833526817
H           -6.84917260650592        0.26559180117613       -1.79188203622642
H           -7.17883967505873       -1.17919161873932       -2.77851022896072
H           -5.67259905748017       -0.26474467020909       -3.03003213357653
H           -4.86955208886983       -3.70911885144917        2.41639924467610
H           -5.28465638363779       -4.96134260864807        1.21990468776341
H           -3.60270250197552       -4.39361286409350        1.35700372926700
H           -3.05593696539892       -2.21460593234818        2.09648112936430
H           -2.13003084421894        0.02680820379054        2.00061041269425
H           -3.02531149851499        2.39608575243280       -1.88787730343871
H           -1.64208795341518        3.25162624421128       -1.20857888952348
H           -1.80876140359470        0.24179446422905       -1.64260721734485
H           -1.02063140781832        1.38669260206623       -2.73720065730802
H           -0.66710927962399        1.66623914613993        0.63256023230873
H            0.71479237785863        1.92910269318942       -1.07598987923488
H            2.08857194116154       -0.68695955070898        0.73818103037430
H            2.27862229410458        0.96381241958270        0.11799009828960
H            2.75211113089092        0.03979214564353       -2.15663750927470
H            2.67336606706162       -1.60058189450331       -1.49200366932652
H            4.58329668336096        1.55977236664198       -1.52441559220358
H            6.88727686605895        1.77241289007742       -0.75718424093470
H            8.62043391121862        1.82593564050774        0.84146919412329
H            9.16882826265001        1.17453213914905       -0.72974535043884
H           10.01437259687903        0.72073134800944        0.77118894908050
H            7.08173844832115       -4.23895312251956        1.63373839160396
H            5.45814553852699       -3.52386821151031        1.78609267122320
H            6.04162625243403       -4.09337893839227        0.19495256814987
H            4.40663597203909       -2.41593084918079       -0.00646003373641
H           -0.20974152407705       -1.63106714133528       -1.69020511253102
H           -1.04203919301166       -1.25739969958335       -0.16487949750822
H            0.53252076373262       -2.07361553941815       -0.14217113462546
H           -4.63826856623477        2.96223983381961       -0.17452681647155
H           -3.73831341001453        2.90522499984702        2.73165436220275
H           -4.85849709259116        1.76051877525545        1.98598572200051
H           -5.30545346090181        3.46126497731800        2.13559772259637
H           -2.58725402803540        4.69007337621922        1.26975716494478
H           -3.03463734031188        4.82015453027239       -0.43880256500691
H           -4.21424419081101        5.18668313371677        0.81184556237444
H           -0.58069722390845        2.77329804790231        2.71082915542246
72
 energy: -6.373114093054 xtb: 6.6.1 (8d0f1dd)
N           -1.46591634113612        2.78351331189987        2.22420146747428
C           -1.51797553983739        2.16320680295907        1.13204696284409
C           -2.72402548340095        2.06962990519727        0.23853057608030
C           -3.29734107831978        0.65961856115446        0.32397260115239
C           -4.29470129132102        0.25692830351600       -0.56782341768829
C           -4.84156759407531       -1.01099840827819       -0.51765544758598
O           -5.82175888869916       -1.47741651678525       -1.34143289459375
C           -6.40126933934421       -0.59796359361133       -2.27034269659692
C           -4.38433685402653       -1.93123856133726        0.45185376698794
O           -4.98127136714500       -3.15574579961708        0.42616295571800
C           -4.64614639678332       -4.08878490346500        1.42034100163319
C           -3.40019792212011       -1.53210672646137        1.33542324934469
C           -2.86371899710781       -0.25016805277312        1.27108917038501
C           -2.18231263552568        2.31380132215992       -1.19727386605122
C           -1.26045412212179        1.18763699895034       -1.70905705649843
C            0.04404448220275        1.09809947529103       -1.00428639676789
N            0.60334476262881       -0.08332173774581       -0.56560919002292
C            1.96539396217247       -0.07833569195151       -0.14238915681762
C            2.91152732320841       -0.58778525971881       -1.24794535142544
C            4.33041613356033       -0.45648184079647       -0.80314585989935
C            5.02004885530943        0.72763105728300       -0.98559845123091
C            6.33090249876965        0.85835756542191       -0.55129133500765
C            6.96650689499340       -0.19257914201592        0.08437827887648
O            8.24753349428914       -0.17988361231296        0.54868973514010
C            9.01885544249103        0.97575766287656        0.35162561142519
C            6.26480946849082       -1.40120532317769        0.28922516585664
O            6.97191264512200       -2.38058946433172        0.91855836151185
C            6.35613070326821       -3.62473728976717        1.12340661237119
C            4.96077465583896       -1.51364537401742       -0.15039478344341
C           -0.07692755065394       -1.33689518922922       -0.67959279807724
C           -3.84740470957578        3.08536066160364        0.58921554934729
C           -4.46307321934356        2.78267917987840        1.95490935218908
C           -3.37593581204620        4.53765987680609        0.55078215264134
H           -4.65331040249680        0.95526353817175       -1.30613876962363
H           -6.84864009255579        0.27241465784640       -1.77883753088320
H           -7.18412398130511       -1.17265177550701       -2.76309908128093
H           -5.67709003538507       -0.26057861261177       -3.02025662399975
H           -4.85590224135393       -3.70296554279914        2.42347594794923
H           -5.27752228207513       -4.95540027843482        1.22949905726195
H           -3.59459448141550       -4.38918389293387        1.35877021252520
H           -3.04163046447277       -2.21022914429264        2.09403744144545
H           -2.11383265510842        0.03105734737053        1.99348354396805
H           -3.02352571002693        2.40625851652488       -1.88724183804993
H           -1.63368488516419        3.25613667219833       -1.21346073762987
H           -1.81406140268662        0.25111364951835       -1.66398618977613
H           -1.03300259412966        1.39760928064442       -2.76052121844887
H           -0.65142271351938        1.67894321051371        0.62402317028490
H            0.78087827474349        1.86052790239682       -1.21185512068919
H            2.05754777363477       -0.71092125041407        0.74790320751568
H            2.25683447431412        0.94122633732329        0.12753531094001
H            2.73795671058083        0.01144692930604       -2.14394168816861
H            2.66766432926402       -1.62671524050448       -1.47176298172746
H            4.54553476147223        1.55793736592095       -1.48723152226671
H            6.85034574922735        1.78711685664156       -0.72382267359151
H            8.58989534890662        1.84133858180136        0.86640905241422
H            9.13659855450588        1.20824250439884       -0.71231403360807
H            9.99324188711153        0.75005217686577        0.78138935266116
H            7.10815794698885       -4.24108206108564        1.61315593567618
H            5.47855511461404       -3.54053855357097        1.77336708046313
H            6.06339347495156       -4.09316857327822        0.17731119083049
H            4.41254481229047       -2.43131855831898       -0.00747694193057
H           -0.19808085413272       -1.63918619265741       -1.72579954478312
H           -1.06580117040959       -1.27375242626282       -0.21871261208223
H            0.50604090731231       -2.09534432931770       -0.16340981287065
H           -4.63252760249330        2.96673739504729       -0.16745395537151
H           -3.71798871222297        2.90813269075643        2.73250368809220
H           -4.84238244409859        1.76408637698349        1.99316413452391
H           -5.28875907861355        3.46486240357163        2.14636949882058
H           -2.57484619033315        4.69204854513947        1.26665758184507
H           -3.03018983190924        4.82378858773989       -0.43955747239695
H           -4.20448657100737        5.19089423676260        0.81690922526227
H           -0.56419015546602        2.77796424871910        2.70037833788943
72
 energy: -6.155933058119 xtb: 6.6.1 (8d0f1dd)
N           -1.45122962720907        2.78902761034996        2.21582491644485
C           -1.50234961093067        2.17026176107724        1.12254902383761
C           -2.71297419790650        2.07414655508675        0.23505293945491
C           -3.28789500409383        0.66480605192300        0.32316133956431
C           -4.29028428339157        0.26245781974884       -0.56356175328348
C           -4.83797909241556       -1.00523060810034       -0.51098292192805
O           -5.82246460133756       -1.47132435838311       -1.33013506848416
C           -6.40396074076671       -0.59219007447659       -2.25797582037919
C           -4.37737398989265       -1.92566928231847        0.45658016878545
O           -4.97576017006975       -3.14978432660072        0.43392620691310
C           -4.63729871001375       -4.08311925471359        1.42658347773690
C           -3.38887923902088       -1.52688524997678        1.33554932650616
C           -2.85149742771883       -0.24534147894184        1.26858773368335
C           -2.17495529062496        2.31938052932641       -1.20279419384711
C           -1.25779256260329        1.19225799724869       -1.73077858680278
C            0.06677263558028        1.08124497055031       -1.06240983809964
N            0.58542198246215       -0.09962845082214       -0.57037619195340
C            1.94497864786649       -0.10086400758128       -0.13485728025405
C            2.89896145058902       -0.61109805456268       -1.23221545676438
C            4.31575443433802       -0.46744341117617       -0.78522323198838
C            4.99222153260678        0.72581787209963       -0.95745360588240
C            6.30305213044926        0.86632209836827       -0.52532492831728
C            6.95104556366614       -0.18424891243499        0.09817242505742
O            8.23322617192265       -0.16402803624618        0.55876739736485
C            8.99375602499934        0.99955323219883        0.36775552855599
C            6.26217671882300       -1.40136106157760        0.29395576433339
O            6.98119937513532       -2.37900049235535        0.91226228748342
C            6.37625549213454       -3.62966067703351        1.10899680450744
C            4.95853738090141       -1.52335313290322       -0.14429003643121
C           -0.09080839635785       -1.35276283643151       -0.70997999059148
C           -3.83661348877721        3.08897610107320        0.59177009405361
C           -4.44659898187535        2.78603076563194        1.96038255353252
C           -3.36701064690344        4.54167299460002        0.55153183000739
H           -4.65097032560242        0.96052129006836       -1.30115785612934
H           -6.84832483027916        0.27925804680184       -1.76574761415954
H           -7.18942529068146       -1.16610769400229       -2.74750390076668
H           -5.68187930086545       -0.25632295817854       -3.01062266678106
H           -4.84214466274008       -3.69686364943839        2.43054598244314
H           -5.27038959825041       -4.94927825703802        1.23892888893429
H           -3.58644752384532       -4.38480313919140        1.36041762724834
H           -3.02724048519902       -2.20593710711981        2.09187753991425
H           -2.09742191479811        0.03498319521376        1.98656354858047
H           -3.02152037838921        2.41638726864025       -1.88671389398600
H           -1.62550736301236        3.26081350979053       -1.21846575239297
H           -1.81980515987424        0.26012349478358       -1.68623532053324
H           -1.04446174624424        1.41026581797414       -2.78286935444185
H           -0.63697217821356        1.68983567443837        0.61425539487700
H            0.84241623555298        1.78472512369891       -1.34651353390961
H            2.02442468528846       -0.73451759553241        0.75643496114941
H            2.23481334999454        0.91882672324390        0.13790249761350
H            2.72412374762886       -0.01706952948841       -2.13158614250403
H            2.66180880667023       -1.65259901171996       -1.45149791276502
H            4.50769640622075        1.55582395539773       -1.45001850733334
H            6.81323011960127        1.80172314469203       -0.69031479258031
H            8.55960439602453        1.85676499820830        0.89143162909353
H            9.10445792377911        1.24203576741807       -0.69472758878601
H            9.97190253063597        0.77925928304395        0.79157029587933
H            7.13460083056359       -4.24304166684462        1.59259680113809
H            5.49910002367773       -3.55731557485692        1.76085799516121
H            6.08522764433647       -4.09305862309026        0.15990335330318
H            4.41838613669997       -2.44654214904882       -0.00856116843006
H           -0.18672821039115       -1.64739394162951       -1.76132521578831
H           -1.08991684858305       -1.29017053819639       -0.27283215631274
H            0.47915947903035       -2.11503470644385       -0.18502281589190
H           -4.62603677872166        2.97056690106974       -0.16044647344348
H           -3.69753274259128        2.91108489256342        2.73372429120880
H           -4.82619015909688        1.76754816335512        2.00067737455940
H           -5.27142868286418        3.46827124778011        2.15670248842350
H           -2.56236767158485        4.69493691169258        1.26343508288849
H           -3.02600366418793        4.82775909164600       -0.44047564166600
H           -4.19463860319909        5.19460421294625        0.82197422635405
H           -0.54742916715596        2.78249956659337        2.68816484790126
72
 energy: -5.616407281500 xtb: 6.6.1 (8d0f1dd)
N           -1.43615011502438        2.79249459671473        2.20739491745918
C           -1.48718325612969        2.17669748523643        1.11257000155019
C           -2.70199546696881        2.07830738136686        0.23117882084016
C           -3.27822782777799        0.66958088853519        0.32209304210376
C           -4.28571579199198        0.26785923721435       -0.55944805733397
C           -4.83436756160645       -0.99949871835004       -0.50427206788480
O           -5.82302897888859       -1.46521975641613       -1.31886408700686
C           -6.40661826109867       -0.58640557241187       -2.24558987976768
C           -4.37039002917541       -1.92016746984500        0.46136338723079
O           -4.97025666828069       -3.14382999932362        0.44167677417507
C           -4.62853312534808       -4.07747933625439        1.43285507066837
C           -3.37747169455423       -1.52188359398278        1.33567860068542
C           -2.83906622056698       -0.24083317297197        1.26596395035307
C           -2.16698801432837        2.32455996314941       -1.20840888710040
C           -1.25448364424758        1.19666280609524       -1.75266136305526
C            0.08948918767719        1.06203867158749       -1.12143844518353
N            0.56713922461734       -0.11462755426442       -0.57676631251649
C            1.92404994292636       -0.12278917370183       -0.12761092377687
C            2.88620499894919       -0.63417448385286       -1.21626613663780
C            4.30091008723522       -0.47811350763108       -0.76690087146120
C            4.96424535519835        0.72396980555656       -0.92914232993107
C            6.27506380460495        0.87411311654991       -0.49939188311704
C            6.93542036270181       -0.17595343805313        0.11185447761631
O            8.21878866443483       -0.14812386731293        0.56849727649679
C            8.96856048385680        1.02331440231893        0.38383191991308
C            6.25944258118814       -1.40146893954539        0.29860138808505
O            6.99028325152518       -2.37730582730005        0.90571783691150
C            6.39631883179831       -3.63443627738197        1.09452670620533
C            4.95615660357876       -1.53278876271048       -0.13808227220412
C           -0.10463765291990       -1.36806908756462       -0.74054919401652
C           -3.82562436486381        3.09240753162806        0.59422230759435
C           -4.42992483545027        2.78927488905888        1.96577970923163
C           -3.35792934668966        4.54555749661889        0.55215915543443
H           -4.64870107853399        0.96578254754788       -1.29610051576440
H           -6.84804438459989        0.28609253906078       -1.75265961917657
H           -7.19464834633375       -1.15961743764962       -2.73184579031151
H           -5.68670169660209       -0.25208187055432       -3.00101125669739
H           -4.82843976819177       -3.69079793054921        2.43764374479909
H           -5.26340042217602       -4.94309943460403        1.24833359651085
H           -3.57840117723559       -4.38050221325535        1.36208958858976
H           -3.01285128511795       -2.20170295797640        2.08988694064415
H           -2.08100959034001        0.03872425464799        1.97973379420203
H           -3.01854907569810        2.42639995355841       -1.88648470453442
H           -1.61717437122604        3.26537032508661       -1.22360632548869
H           -1.82568290984903        0.26912049288553       -1.70873649346586
H           -1.05514060158617        1.42363006453009       -2.80481489099276
H           -0.62331812459170        1.69972709981363        0.60374739059498
H            0.89811868547739        1.70100820827781       -1.47854750615163
H            1.99029277569966       -0.75745291756853        0.76457092802769
H            2.21270731987939        0.89678627929170        0.14823642978275
H            2.71062714357003       -0.04580524700050       -2.11937938869564
H            2.65598188171449       -1.67828946044359       -1.43096107858225
H            4.46978706948312        1.55351628982207       -1.41267156295036
H            6.77592410662179        1.81601182251653       -0.65698340046733
H            8.52937334398589        1.87205957044109        0.91645049456057
H            9.07231831994359        1.27580977500476       -0.67704512149413
H            9.95036967833380        0.80835870115003        0.80174188447259
H            7.16099615607715       -4.24474451133115        1.57198837178607
H            5.51971721362002       -3.57402851600970        1.74832924845157
H            6.10701510795388       -4.09299111141191        0.14255681196442
H            4.42421841578534       -2.46149499875360       -0.00959528409193
H           -0.17508052173595       -1.65549647205336       -1.79632860860360
H           -1.11348211955459       -1.30603076625191       -0.32730369550467
H            0.45202926646450       -2.13393475665929       -0.20673542558796
H           -4.61919417540792        2.97403824395308       -0.15356245464001
H           -3.67709585099764        2.91405898202459        2.73511714814707
H           -4.80989936371465        1.77097324453413        2.00819377876914
H           -5.25386872462041        3.47161313506705        2.16670830731538
H           -2.54987942383456        4.69819573273515        1.26016014313831
H           -3.02181133583300        4.83177693876358       -0.44148981406260
H           -4.18466172261510        5.19808775013852        0.82687556192741
H           -0.53045476815895        2.78693865586442        2.67588899027053
72
 energy: -4.784820019301 xtb: 6.6.1 (8d0f1dd)
N           -1.42080062384760        2.79464049767744        2.19905822889730
C           -1.47236421641890        2.18232307384067        1.10260226596509
C           -2.69096917883983        2.08210487094534        0.22706645662519
C           -3.26845875072420        0.67403549038951        0.32083224811359
C           -4.28105277573387        0.27313722113802       -0.55548286501434
C           -4.83079979954667       -0.99380648286545       -0.49754697054187
O           -5.82358239404237       -1.45908339561292       -1.30761221942335
C           -6.40931861827557       -0.58053591644366       -2.23315240272105
C           -4.36345807613021       -1.91473665071788        0.46617906667668
O           -4.96481781672769       -3.13791147746389        0.44943824449296
C           -4.61987004443245       -4.07187841937515        1.43917122125790
C           -3.36604921856793       -1.51706239876543        1.33576993576422
C           -2.82655647042199       -0.23656966934985        1.26323221335754
C           -2.15833654804134        2.32922463403487       -1.21413700239228
C           -1.25031667256295        1.20083719351104       -1.77486064962328
C            0.11240376671848        1.04096914499132       -1.18120034795991
N            0.54865934240523       -0.12813647942502       -0.58485567736605
C            1.90269405136983       -0.14402404649178       -0.12068223111613
C            2.87334072907995       -0.65702672780579       -1.20004937092666
C            4.28596378393395       -0.48860766913672       -0.74831177008286