25
 energy: -43.834263937889 gnorm: 0.095610640086 xtb: 6.6.1 (8d0f1dd)
C            3.21703702541501        1.27573009693062        0.09241113016049
N            2.33895781669411        0.10556566881855        0.03531771434385
C            2.61331905523649       -1.25749453684185        0.03205650852707
N            1.40077100601385       -1.96269841652210        0.00527126363017
C            0.41096829262532       -1.07925496675626       -0.00926575187786
C            0.95059138692845        0.19597757118864        0.00878861795919
C            0.12239265432465        1.36347639515443       -0.00865372511834
O            0.51112304373677        2.50342175591726       -0.03007340014606
N           -1.25970422028539        1.04320574636865       -0.03123822976468
C           -2.19885405520703        2.13294023352931       -0.04811968667906
C           -1.82570349348420       -0.20865271279538       -0.04859064936261
O           -3.01885331510656       -0.38196002413363       -0.07055708981946
N           -0.94709847324929       -1.30909982942756       -0.03921206102437
C           -1.49587397333717       -2.64057855174155       -0.06268202241149
H            3.73689159647531        1.33781927880854        1.06366212490590
H            4.00981505954099        1.18232811652023       -0.68574578522149
H            2.61760020224493        2.13697505269673       -0.06454100757665
H            3.58002102753680       -1.69614954502991        0.04466227924640
H           -1.64228460094954        3.06905415387936       -0.02552265501058
H           -2.78331824607972        2.10433817078232       -0.94855413763189
H           -2.82262032063306        2.09214936406274        0.82878354383411
H           -1.21988154222181       -3.20326783083296        0.82861345368664
H           -1.17626145704175       -3.18137374851462       -0.95659112046429
H           -2.58113282796148       -2.52756785153821       -0.08011861935458
H            1.32313719835817       -2.95317448509111       -0.01140509588563
25
 energy: -43.837942743412 gnorm: 0.029518821687 xtb: 6.6.1 (8d0f1dd)
C            3.22049523115348        1.24191291201124        0.09070793436507
N            2.33030952180386        0.10533357695902        0.03421370450090
C            2.61764336792002       -1.25576560024616        0.03450327494554
N            1.41357611738740       -1.95254234523756        0.00622966398616
C            0.40895704464928       -1.06704696604779       -0.00885240865241
C            0.94017528145738        0.21060609848380        0.00836942162790
C            0.12025304329399        1.37185863891360       -0.01410610781913
O            0.49954498091728        2.53938607004090       -0.02835430040838
N           -1.26064797494462        1.03964660311668       -0.03176030083913
C           -2.20051943620681        2.13879865968604       -0.04654617218328
C           -1.82135453173774       -0.20746235365177       -0.04790528523145
O           -3.02028812579711       -0.38671853584413       -0.06973196631367
N           -0.94011215240780       -1.30238590136245       -0.03860991718639
C           -1.48902240501636       -2.63656529628496       -0.06274388939934
H            3.72463546050250        1.30672412383374        1.06305995268229
H            3.99475637015351        1.16345593328861       -0.68589094803463
H            2.61768038963873        2.12392636307549       -0.06540812061449
H            3.58429742110519       -1.69683299013551        0.04642856643249
H           -1.62637343060887        3.06591441987294       -0.02660513981783
H           -2.80133225332263        2.10338385760391       -0.94962520970016
H           -2.84073210575189        2.09130032578724        0.82986467785211
H           -1.20731346364912       -3.19784513936953        0.83033329593031
H           -1.16826332810574       -3.17758751220308       -0.95611251586190
H           -2.57435346364412       -2.52754290437222       -0.08261106627998
H            1.33902728078407       -2.95224293248584       -0.01015154503581
25
 energy: -43.838054202897 gnorm: 0.020206581250 xtb: 6.6.1 (8d0f1dd)
C            3.21780056864617        1.24413636878886        0.09020192901411
N            2.33241979777469        0.10474022976420        0.03680441759683
C            2.61877485099106       -1.25889567526271        0.03516333918098
N            1.41909312479836       -1.95535371413822        0.00582718250199
C            0.40547689687551       -1.07313821121976       -0.00737389181745
C            0.94007264561117        0.20407036713845        0.01227655865254
C            0.13141998734321        1.35619431453948       -0.01131454550923
O            0.51540740174507        2.53198168019662       -0.02633057565830
N           -1.25215169078795        1.03022075418291       -0.03032317763341
C           -2.18700435712379        2.13958421367111       -0.04630069126530
C           -1.81629679995006       -0.20921434160856       -0.04754052797467
O           -3.01908359806403       -0.38366297366150       -0.07185834728245
N           -0.94076284205856       -1.30866498648360       -0.03736563562355
C           -1.50369848604067       -2.64045283709694       -0.06329503030356
H            3.72339914564425        1.34907616724768        1.05714327896466
H            3.99269079026255        1.19696983067384       -0.67942935068624
H            2.60709813535083        2.13558143115426       -0.06843671763397
H            3.58417756795974       -1.70144985789939        0.04162850957388
H           -1.61953030777834        3.06762210946254       -0.02522040461420
H           -2.78995664067512        2.09962214892441       -0.95286041414552
H           -2.83243109710201        2.08637071674117        0.82961103408454
H           -1.22883835293987       -3.20705153734490        0.82944848768930
H           -1.18830300001995       -3.18441242738084       -0.95685151234521
H           -2.58801812755508       -2.52289153087310       -0.08224824332551
H            1.33928322666669       -2.95927313408379       -0.01266007249545
25
 energy: -43.838570073231 gnorm: 0.009959765233 xtb: 6.6.1 (8d0f1dd)
C            3.22701473184147        1.24068311530744        0.09132014219170
N            2.33289068384742        0.10721039178384        0.03461369113377
C            2.61310580664885       -1.25679532036748        0.03397288830237
N            1.41302206465968       -1.95144906506030        0.00477639522263
C            0.40236560429545       -1.06914549528230       -0.00983757980553
C            0.93942719612390        0.20795445999489        0.00950629252986
C            0.12641790080609        1.35676036577600       -0.01336846278300
O            0.50845362927179        2.52953649650007       -0.03127384856711
N           -1.25950051718407        1.03363934675829       -0.03160956384407
C           -2.19670543069631        2.14080959955680       -0.04621584957460
C           -1.82102451468780       -0.20629385166682       -0.04835877571759
O           -3.02251821404359       -0.38341487710945       -0.07038846379818
N           -0.94289241846591       -1.30528051901190       -0.03870504318342
C           -1.49425211756987       -2.64052606098135       -0.06306856612017
H            3.73436445210863        1.32885710388022        1.06017285833647
H            4.00223861679759        1.17702747180549       -0.68021084470655
H            2.62634780395142        2.13894565883586       -0.06294600548272
H            3.57798431657944       -1.69976000466144        0.04406204256321
H           -1.63719234756025        3.07130788216401       -0.02633200086232
H           -2.79865376445254        2.10100566744727       -0.95091173465064
H           -2.83656325833938        2.08836402245895        0.83122304778902
H           -1.21115979461631       -3.20183058422124        0.82998185834385
H           -1.17014149058759       -3.18034825496582       -0.95604850495882
H           -2.57890638287502       -2.53195516624386       -0.08082255663600
H            1.32691628372075       -2.95359327726495       -0.01083581677737
25
 energy: -43.838582118444 gnorm: 0.010126157996 xtb: 6.6.1 (8d0f1dd)
C            3.21829365232768        1.24328607483936        0.08896878517498
N            2.33320799459352        0.10649910044979        0.03353522535427
C            2.61712639966036       -1.25552129165716        0.03478485159133
N            1.41827782825429       -1.95231316399983        0.00591785025978
C            0.40672103854782       -1.07170422328637       -0.00898373952468
C            0.94102490957971        0.20751342670864        0.01004105822116
C            0.12561644932152        1.35844753932528       -0.01032406721298
O            0.50384190432504        2.52928402567326       -0.02656203534424
N           -1.26026678177872        1.03459248528289       -0.03037706524554
C           -2.19490406654371        2.14100404789908       -0.04652999107637
C           -1.81915070328082       -0.20668617636407       -0.04795710364509
O           -3.01892829680444       -0.38725338971362       -0.07050869718320
N           -0.93954836424213       -1.30582742681175       -0.03828858117918
C           -1.49338806551528       -2.63848336683611       -0.06351569926634
H            3.72043783519576        1.31992622548812        1.06255458436237
H            3.99153390093186        1.17233878187828       -0.68756978665695
H            2.60812855522660        2.13069264647276       -0.06591867116747
H            3.58470237050993       -1.69427080402441        0.04627085505856
H           -1.62481128054154        3.06531248547085       -0.02595281628494
H           -2.79281702785270        2.10524742763543       -0.95163719575071
H           -2.83415412082314        2.09326231394765        0.82974709115798
H           -1.21399053829474       -3.19988694179477        0.83007879246935
H           -1.17241601978061       -3.17856133921827       -0.95717187464581
H           -2.57705532864259       -2.52221099992379       -0.08245407002228
H            1.33355659520019       -2.95297835200901       -0.00945210049921
25
 energy: -43.838731796996 gnorm: 0.003259916580 xtb: 6.6.1 (8d0f1dd)
C            3.22271789074326        1.24226385748472        0.09112501430525
N            2.33417834459157        0.10648759441604        0.03499598510566
C            2.61631833736908       -1.25655905244451        0.03444138216784
N            1.41789097876836       -1.95201849729817        0.00499716712024
C            0.40549472499946       -1.07117303519786       -0.00902790028089
C            0.94107437527654        0.20843174240488        0.00974173555504
C            0.12760018243435        1.35929609993503       -0.01318604476155
O            0.50608234392286        2.53209135117715       -0.02975279451280
N           -1.25919867825916        1.03464732020447       -0.03170929625725
C           -2.19605884316144        2.13998729151435       -0.04642416447017
C           -1.81887147571019       -0.20562492239686       -0.04809905224129
O           -3.01940175020711       -0.38542775890250       -0.07028869386452
N           -0.94052340631427       -1.30590414470047       -0.03816731151503
C           -1.49644989411983       -2.63909585872251       -0.06278688914337
H            3.72759832561461        1.32753435405228        1.06205872289659
H            3.99836082027048        1.17810076242141       -0.68154295464600
H            2.61601049490204        2.13294504340639       -0.06545560831020
H            3.58283367225250       -1.69783930469166        0.04354245281174
H           -1.62923379199671        3.06666578244445       -0.02636477069105
H           -2.79679428206487        2.10061278177770       -0.95068992540524
H           -2.83576983702487        2.08793038245388        0.83031216434953
H           -1.21708423426696       -3.20181702429450        0.83021104953302
H           -1.17719260923854       -3.18076025221629       -0.95605011686776
H           -2.58060441791024       -2.52559694805215       -0.08118945382721
H            1.33206156870294       -2.95346845934305       -0.01199509810583
25
 energy: -43.838708628016 gnorm: 0.003982274208 xtb: 6.6.1 (8d0f1dd)
C            3.22133703367504        1.24215839778303        0.08908298208718
N            2.33269940738026        0.10588926684481        0.03511291531256
C            2.61412700631534       -1.25736842416012        0.03559636016079
N            1.41623354837504       -1.95250233505751        0.00686338123689
C            0.40342999839407       -1.07187003317981       -0.00807769537973
C            0.93944541015535        0.20749704749142        0.01124052603387
C            0.12800564677906        1.35767999588804       -0.01061194753130
O            0.50746724356312        2.53065504361845       -0.02680349524497
N           -1.25966378879417        1.03418918670965       -0.03041872820166
C           -2.19426499449298        2.14217058582636       -0.04623991418701
C           -1.82025191650022       -0.20532042507565       -0.04799256218906
O           -3.02111514113945       -0.38477829322257       -0.07151360650672
N           -0.94197456302244       -1.30643845007492       -0.03803562341335
C           -1.49452342163877       -2.64089748115132       -0.06408006532681
H            3.72914701732051        1.32993555751903        1.05799584527747
H            3.99514823085780        1.17939817377799       -0.68489029051276
H            2.61612056000728        2.13503940401316       -0.06573523891512
H            3.58033343990129       -1.69904951527349        0.04519416247248
H           -1.62770963345186        3.06904287110818       -0.02529716985010
H           -2.79380537811777        2.10401597471745       -0.95166020834802
H           -2.83544360890185        2.09130330048570        0.82974595731312
H           -1.21296493587178       -3.20307877159078        0.82874271880448
H           -1.17089967220229       -3.18042676877224       -0.95725912305955
H           -2.57902099970791       -2.53122240089669       -0.08333327737616
H            1.32918235069118       -2.95431280189595       -0.00893030371176
25
 energy: -43.838744469207 gnorm: 0.001379967288 xtb: 6.6.1 (8d0f1dd)
C            3.22160121808055        1.24232864731411        0.09072459761730
N            2.33342233079173        0.10622723792523        0.03430339864044
C            2.61535488593848       -1.25664807873435        0.03418025815917
N            1.41768061915566       -1.95216847162265        0.00483689601011
C            0.40461921000073       -1.07198158589616       -0.00956432130756
C            0.94019610474857        0.20769435115557        0.00950040928911
C            0.12814071591513        1.35782262616224       -0.01249117934645
O            0.50683835936241        2.53055396848724       -0.02907405633201
N           -1.25966017728233        1.03400770137716       -0.03130492210086
C           -2.19518030153383        2.14086974227521       -0.04644065346300
C           -1.81961234463167       -0.20556766212326       -0.04805177094214
O           -3.02020476111246       -0.38587182071257       -0.07026223507682
N           -0.94098175883731       -1.30633695226121       -0.03841751396182
C           -1.49540803089105       -2.63966497699924       -0.06289610497197
H            3.72661782137298        1.32722350873431        1.06153520576998
H            3.99684464043447        1.17803775174579       -0.68221018065415
H            2.61625364737786        2.13456920319499       -0.06462451449971
H            3.58199924002468       -1.69753360772242        0.04426413323710
H           -1.62920558177325        3.06799243094484       -0.02631047134812
H           -2.79544565077790        2.10218646017400       -0.95113143854094
H           -2.83503304553505        2.08988486717801        0.83027330586891
H           -1.21479856074429       -3.20142373431802        0.83041254397760
H           -1.17430861806286       -3.18038066399994       -0.95622132310237
H           -2.57954279935289       -2.52632681480865       -0.08113355139597
H            1.33085167690547       -2.95378502203801       -0.01120091258106
25
 energy: -43.838724390382 gnorm: 0.002875383584 xtb: 6.6.1 (8d0f1dd)
C            3.22323337101541        1.24225479083526        0.08926102560049
N            2.33449033916085        0.10653039858411        0.03580761689813
C            2.61613767970631       -1.25621908042461        0.03616329712447
N            1.41836775182696       -1.95139304837008        0.00729776156501
C            0.40536296024941       -1.07136669243287       -0.00727588747953
C            0.94096697486217        0.20880511394009        0.01157880839147
C            0.12821226968344        1.35936787038377       -0.01124745108436
O            0.50531456197982        2.53223573906432       -0.02806163991575
N           -1.25977056093134        1.03448706352585       -0.03086309609120
C           -2.19647561658277        2.13968780848662       -0.04612634040932
C           -1.81915190797887       -0.20504192584753       -0.04802900006162
O           -3.01941788312177       -0.38585885192924       -0.07156471088418
N           -0.94048198856740       -1.30595653286613       -0.03769397026619
C           -1.49628841442085       -2.63900135881183       -0.06416053309832
H            3.72965768449614        1.32806845161276        1.05954094207044
H            3.99770895661415        1.17608031758800       -0.68485995010879
H            2.61628264458950        2.13236694567906       -0.06750820142316
H            3.58285753480202       -1.69738011750562        0.04480660814785
H           -1.62977781614297        3.06638211424529       -0.02533098252481
H           -2.79632681486996        2.10083445490180       -0.95086236797196
H           -2.83658905924079        2.08762749205699        0.83022596776593
H           -1.21802983308622       -3.20271813190784        0.82851254913053
H           -1.17610177177749       -3.17978027366955       -0.95764935966290
H           -2.58040955109148       -2.52553771617172       -0.08366775102996
H            1.33126732839960       -2.95276572553467       -0.00959773573750
25
 energy: -43.838744211750 gnorm: 0.001269626949 xtb: 6.6.1 (8d0f1dd)
C            3.22234599698671        1.24232271360993        0.09021465844559
N            2.33403696329090        0.10625638512996        0.03523562075854
C            2.61564457170920       -1.25654678358589        0.03508108346736
N            1.41797113383340       -1.95169450779996        0.00596599021442
C            0.40490414181159       -1.07165323056761       -0.00835053785770
C            0.94055874787182        0.20843577528658        0.01059716994431
C            0.12835893146750        1.35896800588856       -0.01201679790743
O            0.50578111236106        2.53184027183069       -0.02868172754035
N           -1.25978359483300        1.03442356166884       -0.03123507031491
C           -2.19571548065513        2.14044595099025       -0.04638208268227
C           -1.81945224459939       -0.20497289223566       -0.04808973083783
O           -3.01981702216905       -0.38561854979731       -0.07091560810792
N           -0.94083402883141       -1.30613686497320       -0.03800830666676
C           -1.49573049672609       -2.63954680871177       -0.06336554605716
H            3.72824897918793        1.32776932610405        1.06070767120658
H            3.99728363608271        1.17765804061833       -0.68339663362156
H            2.61558276381734        2.13288012524113       -0.06583976633984
H            3.58228508497707       -1.69780969199024        0.04412759460712
H           -1.62865666288599        3.06698636363990       -0.02589488129997
H           -2.79580427860539        2.10188461149449       -0.95104361057769
H           -2.83571226381525        2.08904422055556        0.83013532664684
H           -1.21602505856505       -3.20234221792379        0.82949215916115
H           -1.17516656970502       -3.18051229807765       -0.95664302658211
H           -2.57997081339723       -2.52721196850455       -0.08219287716145
H            1.33070529096463       -2.95316043245840       -0.01080547195218
25
 energy: -43.815287766481 gnorm: 0.172448797310 xtb: 6.6.1 (8d0f1dd)
C            3.14797494641352        1.36816968673071        0.09249412001010
N            2.39113917378998        0.09342148832836        0.03897848886382
C            2.63883581167989       -1.30528028511826        0.03886307290453
N            1.40787408761015       -2.00598047003883        0.01830436778018
C            0.42254589765393       -1.10808095527460       -0.00874787811285
C            0.96935052052251        0.16247059195762        0.00671064099759
C            0.15063902749714        1.32251561630912       -0.01606129768237
O            0.55838549786362        2.44331215896748       -0.05959705381775
N           -1.26298068840919        1.02209734154566       -0.03225060760256
C           -2.16924241140629        2.12200114782071       -0.04582549530636
C           -1.82452634348901       -0.22198830266940       -0.05056920468590
O           -3.03133991643867       -0.39514659169622       -0.07184888027609
N           -0.94869898312449       -1.33216451219844       -0.04285589574115
C           -1.52263842181011       -2.64082346147984       -0.06628716756241
H            3.73356174430652        1.46340399078885        1.05122280122156
H            3.98443334046988        1.32821494420111       -0.69978610033224
H            2.52594126863608        2.15371623326266       -0.04103436948822
H            3.58230384837037       -1.75722594108123        0.04958904293167
H           -1.61058922490023        3.04852408414763       -0.02563800697051
H           -2.74404699771851        2.12031323468415       -0.94183945010745
H           -2.76914165910889        2.11153601480451        0.83995536999596
H           -1.26842652373628       -3.21518478325687        0.82673449644921
H           -1.20633207913597       -3.19009134461365       -0.95847796163397
H           -2.60527038349134       -2.49768559660847       -0.08778121654812
H            1.27081299315640       -2.97739907114683       -0.00000372598727
25
 energy: -43.829455411733 gnorm: 0.044020142502 xtb: 6.6.1 (8d0f1dd)
C            3.17786853090947        1.30299057523122        0.08996914505560
N            2.36357087894398        0.09181203411152        0.03975159562537
C            2.63433642855741       -1.28718713881784        0.04361897675917
N            1.42129870751438       -1.98191574420663        0.01834730431979
C            0.41861205914826       -1.09146795218408       -0.00648543823044
C            0.95513948109574        0.18173951444989        0.00700520218183
C            0.14207847455428        1.33884127952186       -0.02420193401510
O            0.52698577781281        2.49956453117213       -0.05702557025088
N           -1.25533681404269        1.02015464034233       -0.03250928923044
C           -2.16963367737782        2.13156054038419       -0.04340865149465
C           -1.81435319708292       -0.22061795827944       -0.04893352371076
O           -3.01694209747136       -0.39773766094714       -0.07049495987145
N           -0.93768828445254       -1.32196988674474       -0.04055686314104
C           -1.51237670094220       -2.64046906307120       -0.06641751543454
H            3.71299990942234        1.41003351705673        1.05348152765999
H            3.96249246169851        1.29591669808193       -0.70154415414760
H            2.52402409572602        2.13304532820267       -0.04767334886155
H            3.58981834312553       -1.74461469954295        0.05255734640439
H           -1.58715753197300        3.05207815698207       -0.02757253789464
H           -2.76862362297381        2.11584618286978       -0.94481245784992
H           -2.79453366162199        2.10706293852669        0.84255063856426
H           -1.25594267649135       -3.21288271994638        0.82840417752047
H           -1.20094561880417       -3.19133790982385       -0.95799787766130
H           -2.59548968984379       -2.50281050563026       -0.09163509315873
H            1.30036294976991       -2.97498947937257       -0.00016860983841
25
 energy: -43.829651044069 gnorm: 0.026050768321 xtb: 6.6.1 (8d0f1dd)
C            3.17652021960384        1.30131227479306        0.09136602993245
N            2.36129845596852        0.08767041605033        0.04305199497924
C            2.63214318045273       -1.29013663121206        0.04216253547762
N            1.42532370736594       -1.98577275778080        0.01752520531480
C            0.41445418821552       -1.10277625931797       -0.00558611676725
C            0.96000276831393        0.16725427332139        0.01085777325897
C            0.15625813992564        1.31596343497828       -0.02127357507185
O            0.54890870185369        2.48510286538843       -0.05477713969401
N           -1.23854579837800        1.00928039209221       -0.03184675219494
C           -2.15228307254810        2.13177784125730       -0.04293618095160
C           -1.81127970609953       -0.22301599110437       -0.04970991543951
O           -3.01508729538725       -0.39086720300438       -0.07339274223138
N           -0.93871617975246       -1.32691664427124       -0.03934910992529
C           -1.52912198697307       -2.64391289180043       -0.06695700960757
H            3.71045658245664        1.47273049664083        1.03679912988898
H            3.94998021853637        1.34150903818228       -0.68416612365921
H            2.50330059197178        2.14942210502476       -0.04860923315804
H            3.58796739268328       -1.75912323910896        0.04433509518702
H           -1.57547345687199        3.05257743761966       -0.02563153047966
H           -2.75595145356674        2.11178608713639       -0.94773326757405
H           -2.78448695648739        2.10079079235320        0.84202238005701
H           -1.27743442928213       -3.21742089132863        0.82802083413307
H           -1.22049149619159       -3.19321233469018       -0.95938297351837
H           -2.61099349420096       -2.49408020380524       -0.09082123140402
H            1.30381570359234       -2.98729718904792        0.00028001274697
25
 energy: -43.830806405891 gnorm: 0.010978028118 xtb: 6.6.1 (8d0f1dd)
C            3.18729637282684        1.29943742717263        0.09112486391596
N            2.36304727784088        0.09241488573771        0.03897500266916
C            2.62917718362732       -1.28689902266025        0.04161085563117
N            1.42062843839200       -1.97985931183405        0.01573237733466
C            0.41222535770027       -1.09607663396125       -0.00856134670905
C            0.96031220378533        0.17437553447428        0.00762564168558
C            0.14973289254683        1.31884037242136       -0.02293916924650
O            0.54386052437764        2.48480969218720       -0.05997272824281
N           -1.24795874219391        1.01417851390330       -0.03270445487138
C           -2.16616643288329        2.13334586605948       -0.04294910915886
C           -1.81872296003295       -0.21990024573627       -0.04975520888421
O           -3.02246261798473       -0.39283681162884       -0.07076928356508
N           -0.94018534860977       -1.32151647402939       -0.04071213956188
C           -1.51760287571492       -2.64347075546773       -0.06668495780900
H            3.71874643680632        1.43807114258331        1.04411545175833
H            3.96103007022113        1.30939166511261       -0.69012474066453
H            2.52701826901895        2.15612702550062       -0.04208034766922
H            3.58267077123844       -1.75729622918753        0.05028656304407
H           -1.59829380406112        3.05596550010723       -0.02725776038500
H           -2.76832593226263        2.11303599779029       -0.94571278569012
H           -2.79247257642001        2.10370328836082        0.84308791031912
H           -1.25631676399057       -3.21212951350453        0.82827319798645
H           -1.19902230066252       -3.18857809509195       -0.95812248568715
H           -2.60018276586926       -2.50410398079338       -0.08952075240694
H            1.29253184750474       -2.97838461914972        0.00128349550663
25
 energy: -43.830741025582 gnorm: 0.012528678316 xtb: 6.6.1 (8d0f1dd)
C            3.17759863538310        1.30268668697225        0.08716666321939
N            2.36416681029620        0.09331252825098        0.03828387376906
C            2.63580393137101       -1.28485971821036        0.04375358406431
N            1.42765996916616       -1.98045533296877        0.01781200696789
C            0.41701039285236       -1.09774000898753       -0.00617132227661
C            0.96145329295923        0.17652325659408        0.00951913339116
C            0.14656641137179        1.32218258546335       -0.01922490073657
O            0.53553280261488        2.48820453677450       -0.05453974948101
N           -1.24929611828390        1.01396583157387       -0.03110011576546
C           -2.16175006525831        2.13444119326909       -0.04304362541417
C           -1.81642851378865       -0.22179027929987       -0.04933545444298
O           -3.01900400383299       -0.39918537742336       -0.07222307519727
N           -0.93630627764712       -1.32357774200313       -0.03990229359285
C           -1.51893839300724       -2.64322421657482       -0.06717834643857
H            3.70145548999927        1.42801001980470        1.04998660717615
H            3.95274374469796        1.30809731278317       -0.70103101611200
H            2.50979808475542        2.14573415596240       -0.04754783507080
H            3.59123207131201       -1.74833365710455        0.05149116667894
H           -1.58082261352284        3.04928628843420       -0.02643070087849
H           -2.75827034153469        2.11856223537640       -0.94693635736224