25
 energy: 0.000000000000 xtb: 6.6.1 (8d0f1dd)
C            3.23720132972391        1.16630909158653        0.08434468864950
N            2.29877796055224        0.07527476373246        0.03981602671198
C            2.58028186251803       -1.21425391179017        0.03006175752192
N            1.43813944744728       -1.93419254010258        0.00098261751768
C            0.39035684826767       -1.05887462812143       -0.00790371763344
C            0.93510047688824        0.21347817468824        0.01709077332874
C            0.09450143016486        1.40504290868848       -0.00410946993748
O            0.49712746915594        2.54126690785742       -0.00342325656480
N           -1.25076628431515        1.06271869620815       -0.03085477937476
C           -2.21907191394203        2.15522079838987       -0.05001256521996
C           -1.81739470187490       -0.20012724136556       -0.04692818139228
O           -2.99983858926755       -0.37846413507442       -0.07008877579474
N           -0.92618577614240       -1.30210203518959       -0.03682761236648
C           -1.46982251276835       -2.64643077634382       -0.06029819901142
H            3.71247229913541        1.21471443890471        1.06488839270555
H            4.00791460421487        1.03430799217987       -0.67357688121503
H            2.69909982127087        2.09770098766290       -0.09130154035862
H            3.56654087521359       -1.63682977417947        0.04233139674524
H           -1.67107945562430        3.09322822573871       -0.02552706696334
H           -2.82428927394145        2.09428605349656       -0.95318074103337
H           -2.87644002486466        2.07745706351925        0.81450059976605
H           -1.17061985538665       -3.19584861009707        0.83242224714061
H           -1.14560246782873       -3.17511580834413       -0.95688266944647
H           -2.55549768731684       -2.55659960601237       -0.07459039105944
H            1.38130842369251       -2.94313824728853       -0.01389874052104
25
 energy: -5.437589788430 xtb: 6.6.1 (8d0f1dd)
C            3.24171997148777        1.18423869525519        0.08671624438682
N            2.30976943066581        0.09375847101813        0.03830490079465
C            2.59957270343630       -1.23609801446711        0.03050061972823
N            1.42663095305457       -1.94391810012577        0.00098080316736
C            0.39602810191833       -1.05966700046770       -0.00821099130208
C            0.93150586718359        0.21851989085308        0.01552526425090
C            0.10433680142046        1.39212681608421       -0.00516300820460
O            0.50262242817949        2.55729965442664       -0.00436748135476
N           -1.25788828066376        1.04844233919396       -0.03108674263777
C           -2.21581424895661        2.14626874977612       -0.04959123130690
C           -1.82311774976474       -0.20185339646925       -0.04743408671856
O           -3.02004070602799       -0.38234779498125       -0.07060467892950
N           -0.93515603212212       -1.30323597692985       -0.03725549135955
C           -1.47616682240555       -2.64412618264301       -0.06065146464540
H            3.72187399168317        1.24058553082263        1.06759637675462
H            4.01157556318391        1.06044264937343       -0.67651421677291
H            2.69160258414661        2.10710614386596       -0.08839381671030
H            3.57643243314330       -1.66533495948802        0.04304995075228
H           -1.65193680369226        3.07617420412572       -0.02551322470626
H           -2.82151985184628        2.09378610661654       -0.95379081077644
H           -2.87285000580031        2.07751015237255        0.81673986636504
H           -1.17476180911631       -3.19619086444868        0.83157327552068
H           -1.14907050364237       -3.17571243975180       -0.95638190043806
H           -2.56135926370656       -2.55084760033893       -0.07539267511817
H            1.35822555321402       -2.94789828492877       -0.01360156854478
25
 energy: -6.225417874563 xtb: 6.6.1 (8d0f1dd)
C            3.24145717651076        1.21102067298287        0.08947243508604
N            2.32521724913581        0.10406024020274        0.03628748624098
C            2.61562827079890       -1.26148856503334        0.03244883838613
N            1.41226156680905       -1.95114473109507        0.00214307485644
C            0.40113754198879       -1.06257559314301       -0.00877772560211
C            0.93283701867975        0.21861047136391        0.01308086739632
C            0.11893670234996        1.36879119614960       -0.00789344352055
O            0.49951521584976        2.55281337065095       -0.00770213616952
N           -1.26304580992714        1.02778389168610       -0.03193126954264
C           -2.20237543658215        2.13476245129797       -0.04840873600693
C           -1.82570961168689       -0.20779643813938       -0.04845475346916
O           -3.02957507746654       -0.39061018555685       -0.07139100504642
N           -0.94359234854667       -1.30528423734084       -0.03824903751671
C           -1.48841898891147       -2.64092685540556       -0.06182359715734
H            3.73385739621762        1.29628577285147        1.06614792613403
H            4.01309450535309        1.12571895974402       -0.68116544161492
H            2.66614153045489        2.12151466395614       -0.07905363721488
H            3.58082111073190       -1.70891081875724        0.04553022684877
H           -1.60588991651884        3.04576187370760       -0.02566051190786
H           -2.81020374720674        2.09581992328143       -0.95262692681750
H           -2.85795228806735        2.08098779037040        0.82091198350346
H           -1.19124682133568       -3.19810920870519        0.83005362608907
H           -1.16318727473065       -3.17827719155054       -0.95624840321632
H           -2.57326226569784       -2.53715031254179       -0.07801139509189
H            1.32576860677011       -2.95262835223237       -0.01164453245191
25
 energy: -2.116684770286 xtb: 6.6.1 (8d0f1dd)
C            3.22412290642845        1.26223646888836        0.09214983862777
N            2.35151238795333        0.10606186255624        0.03491057266929
C            2.63612122289879       -1.30045607887325        0.03799511907318
N            1.39967523930069       -1.96670702757407        0.00643376346443
C            0.40955789437252       -1.07633351742423       -0.00927487765691
C            0.94371936466408        0.20623778327214        0.00982351730278
C            0.14372145796923        1.33195227330648       -0.01408758157323
O            0.49609779928862        2.53338914313141       -0.01650482543234
N           -1.26124410556971        0.99507407320436       -0.03430124879350
C           -2.16498197783547        2.12112337345759       -0.04549753755272
C           -1.82429332419155       -0.22358736239569       -0.05081990818211
O           -3.03370628155445       -0.40794407329768       -0.07332186943893
N           -0.94942279597239       -1.31592705016901       -0.04050914892837
C           -1.51441527663701       -2.64017577505538       -0.06511113412754
H            3.73929098488480        1.40623484351602        1.05749021936091
H            3.99746366344148        1.26889106963196       -0.69355434855686
H            2.58805671744445        2.14372052639529       -0.05651405803332
H            3.58315472625373       -1.78357347751723        0.05236592424173
H           -1.50838601192619        2.99546277996182       -0.02669532512494
H           -2.77789186135159        2.10632554469178       -0.94766020942239
H           -2.81469954548173        2.09486160825778        0.83046862763062
H           -1.23606347628714       -3.20679361723070        0.82794224258156
H           -1.20108648752807       -3.18842541561905       -0.95814813816547
H           -2.59809844462569       -2.50646659783668       -0.08533154923354
H            1.28400952903326       -2.96615256853427       -0.00521415253559
25
 energy: 3.861340894510 xtb: 6.6.1 (8d0f1dd)
C            3.19197027505648        1.31216101727298        0.09280141371389
N            2.37202568638801        0.10062534461917        0.03607853316816
C            2.65382234155984       -1.33018949286012        0.04438542479460
N            1.40115271499957       -1.98706549104441        0.01238185179748
C            0.41835070828476       -1.09723933149234       -0.00899590453496
C            0.95724169069841        0.18474712273290        0.00800165054482
C            0.16600766271715        1.30251721995096       -0.02084655849938
O            0.50621456925144        2.51094860444782       -0.02669750233100
N           -1.24952659853072        0.96987694092220       -0.03729675367431
C           -2.12065329511559        2.11586373548860       -0.04209523426766
C           -1.81795082492181       -0.23944100629155       -0.05352257915435
O           -3.03085457961946       -0.42067684820214       -0.07558426613491
N           -0.94865345867712       -1.33280246198382       -0.04294402885808
C           -1.54187237498901       -2.64481896633975       -0.06928800658224
H            3.72560466192876        1.50691708510983        1.04572417489838
H            3.95914939318868        1.40985841591798       -0.70920500300113
H            2.48958509001738        2.15852875817529       -0.03233686059937
H            3.58701129615693       -1.84075246814110        0.06078748420239
H           -1.41647214202455        2.95895599920547       -0.02858984944917
H           -2.73882145722441        2.12254360332561       -0.94086208678931
H           -2.76121541109934        2.11441844545794        0.84162056793849
H           -1.28859076828708       -3.22092448719393        0.82595530307564
H           -1.24460584129686       -3.20412473614434       -0.96138507291103
H           -2.62337950091256       -2.47582480528451       -0.09465358084750
H            1.26667446742349       -2.98507340890472        0.00360079569511
25
 energy: 11.526978694628 xtb: 6.6.1 (8d0f1dd)
C            3.15027970122613        1.36530910471622        0.09251852705963
N            2.39014332689172        0.09378691404377        0.03879002863369
C            2.67199194661553       -1.35570250591920        0.05197801496622
N            1.41017201218383       -2.01082395962036        0.01990768169986
C            0.42824923768329       -1.12354360491962       -0.00831702782881
C            0.97182942601512        0.15768793977631        0.00643364658747
C            0.18927556643072        1.27307527950809       -0.02882382394463
O            0.52622934576330        2.48439433272364       -0.03869412788988
N           -1.23151289665666        0.94724082422123       -0.04095012454833
C           -2.07048523289857        2.11426993802061       -0.03775275305646
C           -1.80743554454790       -0.25496711000573       -0.05664927152973
O           -3.02314044669812       -0.42902392414057       -0.07816062153347
N           -0.94509482827935       -1.35414118396754       -0.04579608408704
C           -1.57270950024118       -2.65250222962671       -0.07469206147574
H            3.70004579464273        1.60816682483879        1.03117638765237
H            3.90162352973422        1.55241572046672       -0.72669169935492
H            2.38187366626348        2.17123371630440       -0.00679848152322
H            3.59285228390075       -1.88964053693053        0.07131394138146
H           -1.32787805355042        2.92934386067497       -0.03117095883576
H           -2.69458055180452        2.14160226107878       -0.93164560990267
H           -2.69830599075052        2.13656745619873        0.85514984446343
H           -1.34977002184187       -3.23915785070823        0.82297863158081
H           -1.29430975169800       -3.22423959979830       -0.96544563001731
H           -2.65074517434904       -2.44432050757037       -0.10651584091117
H            1.26361646093773       -3.00800237062113        0.01489132460870
25
 energy: 20.724728931405 xtb: 6.6.1 (8d0f1dd)
C            3.10594915243828        1.41913146860409        0.09170672019318
N            2.40593018003205        0.08817553322208        0.04261357955444
C            2.68943891852593       -1.37589589006709        0.06066159783726
N            1.42413828464213       -2.03522342031219        0.02860943325702
C            0.43843518195197       -1.15271436300373       -0.00753898426550
C            0.98634255218757        0.12847844850752        0.00460255515387
C            0.21105993008452        1.24396551559751       -0.03813244469032
O            0.54848654830293        2.45641180148959       -0.05251425306115
N           -1.21023547165214        0.92685210873367       -0.04511840634980
C           -2.01883322393187        2.11416836071275       -0.03218965665039
C           -1.79421044298551       -0.26976568820431       -0.06004243766097
O           -3.01204591629332       -0.43337778444361       -0.08077126824364
N           -0.94018913107010       -1.37815015782818       -0.04912458219106
C           -1.60598121772095       -2.66186360644992       -0.08141313798381
H            3.66801263020192        1.70746261696909        1.01512925737343
H            3.83231841789851        1.68573146578211       -0.74347740714798
H            2.28295118507951        2.18432615832303        0.01694423029007
H            3.59947023058131       -1.92981857137396        0.08387190578417
H           -1.24723809008799        2.90535069392531       -0.03405436612365
H           -2.64943829114009        2.16043225339852       -0.91980803559305
H           -2.63018624068599        2.15765356603883        0.87132597885379
H           -1.41703917945841       -3.25936187260757        0.81855521613408
H           -1.34797991106437       -3.24675776239599       -0.97026336288287
H           -2.67909975360973       -2.41363132697762       -0.12078797856347
H            1.27215796274614       -3.03255075889597        0.02824975917083
25
 energy: 31.617794742761 xtb: 6.6.1 (8d0f1dd)
C            3.06122873969325        1.47322759907296        0.09062915518198
N            2.41876296740466        0.08447584121713        0.04729708365627
C            2.70563783951709       -1.39019206837693        0.07041428270967
N            1.44230063745465       -2.05953305508479        0.03826608126268
C            0.44822246380975       -1.18465634829018       -0.00685589766558
C            0.99965421315764        0.09784342921920        0.00218428937904
C            0.22924538944141        1.21426185422833       -0.04918452133964
O            0.56636454051562        2.42760910863954       -0.06913953095316
N           -1.18746600780327        0.90708711318025       -0.04977600936085
C           -1.96511647711788        2.11553414382506       -0.02496811330156
C           -1.77969746041809       -0.28506803309139       -0.06355701544644
O           -2.99908367462481       -0.43509453716771       -0.08308069996539
N           -0.93513530491843       -1.40530012981373       -0.05302299661969
C           -1.64199849405284       -2.67351652697231       -0.08958310103351
H            3.62961734194501        1.80682069925677        0.99920289163859
H            3.75591704151975        1.80816824671202       -0.75856831839072
H            2.19622196909248        2.19938817368485        0.03670995892683
H            3.60692881082634       -1.95978848908993        0.09847548924335
H           -1.16848246723215        2.88485950346883       -0.03677975687052
H           -2.60277687692968        2.18132783050308       -0.90514693231207
H           -2.55584999797942        2.17951210530761        0.89108691110992
H           -1.49029309998765       -3.28176774728351        0.81238091386675
H           -1.40571221707742       -3.27213681316198       -0.97592954410723
H           -2.70874308153174       -2.38577495490302       -0.13749321081751
H            1.29246751026804       -3.05825815633624        0.04347250340334
25
 energy: 38.665469416927 xtb: 6.6.1 (8d0f1dd)
C            3.01465955201975        1.53585412099450        0.08562454703903
N            2.43220956869665        0.07018266841995        0.05948281118127
C            2.70139911525762       -1.36992699072368        0.08461647826981
N            1.49722629098380       -2.08789999919308        0.05310241240715
C            0.45414241896160       -1.23156562734862       -0.00701800569429
C            1.03467258703517        0.04742046015262       -0.00254225684331
C            0.22068509425324        1.20141968577554       -0.06792646253571
O            0.57040603045388        2.38814539976807       -0.10068102822078
N           -1.14096114298122        0.90738256741106       -0.05683373600825
C           -1.90284694299517        2.12745624498050       -0.01179846936370
C           -1.75301940504617       -0.30329999110210       -0.06751658110427
O           -2.96062384342291       -0.41810872739543       -0.08478687250306
N           -0.91189251866259       -1.45203944658141       -0.05915119252587
C           -1.69107825385797       -2.69770550629633       -0.10355465237627
H            3.56122623436507        1.90453927814406        0.96462201394527
H            3.61305020228532        1.91081672857518       -0.76197063952824
H            2.16949240203878        2.20851223075168        0.06020408347127
H            3.59499172618571       -1.96532874963901        0.12188613723052
H           -1.13705944861524        2.88897693664185       -0.04324801455447
H           -2.54580168021555        2.20207588508040       -0.87546842699715
H           -2.44854576388305        2.19614043244970        0.92136643129274
H           -1.60221545459178       -3.30985895606528        0.79972074369152
H           -1.49226329616262       -3.30842242363621       -0.98530850254188
H           -2.73928474753275       -2.36007785706957       -0.16422756413629
H            1.37364558040271       -3.09565957535048        0.06844065859949
25
 energy: 59.304556237162 xtb: 6.6.1 (8d0f1dd)
C            3.00483216147341        1.59832879833135        0.08930575984388
N            2.46372946752367        0.07321260401373        0.06879133167310
C            2.72441320851905       -1.38697049258367        0.10549359585593
N            1.51266246005020       -2.10827596047379        0.06972639591798
C            0.46796772084389       -1.26255867492688       -0.00699600663278
C            1.05440619605787        0.02126630712014       -0.01165590797608
C            0.24348958799742        1.15096690380669       -0.09334714284019
O            0.56721137496268        2.35486900935971       -0.14980670857006
N           -1.11982025173910        0.87232344550677       -0.06535769864122
C           -1.85474978344455        2.11209236933922        0.00297416602034
C           -1.73644881161948       -0.32345391298515       -0.07299755448804
O           -2.94927470781672       -0.41690461025647       -0.08663608883727
N           -0.91089388545232       -1.48208689725227       -0.06770828602583
C           -1.74554621623875       -2.70350794361290       -0.11989257734456
H            3.56828410054776        2.03736803649276        0.94540885747101
H            3.53812823117080        2.07373844589935       -0.79731384705292
H            2.09503629363815        2.22303346886960        0.10915767146787
H            3.59885746937661       -2.01330840308084        0.15407165754521
H           -1.05410278111678        2.85346085136191       -0.05464080023696
H           -2.51784496722201        2.20942424490275       -0.84456335946551
H           -2.35820987417265        2.20455819853172        0.96296541591172
H           -1.71667204517624       -3.32828696150009        0.78612383841115
H           -1.57716951389241       -3.33682390929165       -0.99545593662019
H           -2.78124172144524       -2.31430342862920       -0.19736522580001
H            1.39517059214696       -3.11913270019885        0.09675236260793
25
 energy: 79.053902446674 xtb: 6.6.1 (8d0f1dd)
C            3.00722993043330        1.66409474200296        0.09731614407052
N            2.48841057911443        0.06958614226041        0.07985378904968
C            2.73250656502560       -1.38960817020523        0.13127368983355
N            1.53050327669690       -2.12523267226279        0.08705359341394
C            0.47259822981090       -1.29421388619122       -0.00988229449519
C            1.07379530258963       -0.00824239860380       -0.02989890117918
C            0.26701863380800        1.10601213361235       -0.13853277787608
O            0.59577313769001        2.30732864913218       -0.24351722941272
N           -1.09379056116713        0.85014378960107       -0.07406390465634
C           -1.82222629414161        2.09631774265737        0.02686496721809
C           -1.72224560114003       -0.33876737095323       -0.07526488319049
O           -2.93723950532704       -0.40046193916321       -0.08008304772930
N           -0.91407195535430       -1.51393202656559       -0.07957359263733
C           -1.80027156424228       -2.71139961303768       -0.14109704879912
H            3.58969340017059        2.15894343090968        0.91926255634986
H            3.45503080859933        2.20282071573033       -0.80840594125672
H            2.06482552739549        2.24213221700816        0.17040898036503
H            3.59090024657009       -2.03937057195158        0.19432806466640
H           -1.01279123676354        2.83103061024031       -0.06867352985156
H           -2.51466862838521        2.20581388221378       -0.79460983039390
H           -2.26784443431142        2.19770674827345        1.01632332309741
H           -1.82956960936043       -3.33430951902220        0.76522350431471
H           -1.65859685468704       -3.36141278441840       -1.00795719159214
H           -2.81695200733864       -2.28485341359777       -0.23712190671705
H            1.43419691928659       -3.14109764892542        0.12780737960242
25
 energy: 92.902790727648 xtb: 6.6.1 (8d0f1dd)
C            3.03780595885369        1.72363405568034        0.11978079317851
N            2.50737673971040        0.06194358499251        0.08887273100270
C            2.72934425022703       -1.39382730031628        0.15632856724760
N            1.53218256253382       -2.13679450795221        0.10111117170444
C            0.46895057130253       -1.31540771605889       -0.01466872025189
C            1.08493941392996       -0.02708914376972       -0.05601388333205
C            0.27861439012231        1.07303859973659       -0.21067285478466
O            0.60225185665883        2.27296597356483       -0.40070430261713
N           -1.08242738366353        0.82950422928666       -0.08166536308479
C           -1.80493858899837        2.07856827472004        0.05727355392258
C           -1.72006715580426       -0.35249194865038       -0.07112402308188
O           -2.93660176593164       -0.38801309647614       -0.05835067206186
N           -0.92594402601138       -1.53683420019612       -0.09149007022179
C           -1.84180067865784       -2.71570358732464       -0.16179245605984
H            3.65344153549014        2.24387033375554        0.90237387679503
H            3.40114831956610        2.30218512721510       -0.80197144130011
H            2.08522546410575        2.26946377236373        0.25910494606367
H            3.57474975315883       -2.06007317193409        0.23144263979018
H           -0.98949816704233        2.81235602043742       -0.08002399063932
H           -2.53660709531913        2.19275479299705       -0.73076863510763
H           -2.19488040412647        2.17816419947048        1.07028470662018
H           -1.91320064565247       -3.32582946484975        0.74462737940910
H           -1.71246616093625       -3.37519144327188       -1.01986488835806
H           -2.84101344283441       -2.26588100815590       -0.27716025075215
H            1.45562900429083       -3.15628358652036        0.15210509811361
25
 energy: 101.651002780029 xtb: 6.6.1 (8d0f1dd)
C            3.05803309854318        1.80080579631908        0.15092214732119
N            2.50718533439660        0.03986605834892        0.09215840610313
C            2.71301065028342       -1.40504817536891        0.18282571027884
N            1.52050486903431       -2.15567996722179        0.11542830788625
C            0.45516359943266       -1.33939062893093       -0.02206581565888
C            1.08369865003931       -0.05263055167684       -0.08988564628117
C            0.29825757517186        1.04753101058173       -0.31106719958083
O            0.65696121653035        2.22055606043534       -0.60304505766473
N           -1.06841865965052        0.82081717576541       -0.08599261545467
C           -1.78660901944987        2.06672046466558        0.09597389327288
C           -1.72145909705194       -0.35782542089848       -0.06293603689760
O           -2.93895040413202       -0.36878421078465       -0.02171436069061
N           -0.94660401751042       -1.55524925933614       -0.10416894027874
C           -1.87190637978228       -2.72118683666356       -0.18253072870488
H            3.72544593601340        2.31989626442269        0.88642269588561
H            3.34432652802235        2.38092237754541       -0.76702680525506
H            2.10717145569219        2.31284658720321        0.35753974760391
H            3.55436277518957       -2.06758509384777        0.26429558280991
H           -0.99010698634766        2.81042442991548       -0.07959138629172
H           -2.56063211405820        2.17875804830467       -0.65253240237126
H           -2.12960329851852        2.14605118341482        1.11840307451707
H           -1.97244796857624       -3.30906845757374        0.72524007876849
H           -1.73766538522540       -3.38578488093805       -1.03027818233824
H           -2.85542879176174       -2.26108477762696       -0.32085045662645
H            1.46792473868769       -3.17684840731055        0.17150990184204
25
 energy: 101.687808337324 xtb: 6.6.1 (8d0f1dd)
C            3.07696535570248        1.89297001855230        0.17920269612680
N            2.50775776835752       -0.00543345979820        0.07543701672566
C            2.69082258115731       -1.43456720957110        0.18822694310232
N            1.50310886541687       -2.18746577041018        0.12580520139150
C            0.44168804881149       -1.36409081771304       -0.03153631019192
C            1.08926659574108       -0.08634857011850       -0.11811795158196
C            0.30447112644750        1.02233841096355       -0.38657836025656
O            0.67161259961723        2.16851489808195       -0.72593753683996
N           -1.05420138790545        0.81157304585979       -0.09421624394167
C           -1.76028184194544        2.06100033720290        0.11711282717101
C           -1.72240887834135       -0.36275845262713       -0.05963032127416
O           -2.93906920168248       -0.35467955958822        0.00556194783324
N           -0.96203207780236       -1.56916597532495       -0.11109799098934
C           -1.89335378924761       -2.72491925226685       -0.19213970234619
H            3.78687272644593        2.40781242542140        0.87442923282883
H            3.29378669850767        2.48844631254964       -0.74438726065074
H            2.13274956690616        2.36445567432507        0.45155386712541
H            3.52998303717107       -2.09897019826557        0.28367353602507
H           -0.97575789767613        2.80891219603815       -0.08389411510593
H           -2.56589583650757        2.17619037842823       -0.59991328432236
H           -2.07238993830531        2.13159934222173        1.14745378575856
H           -2.01375198737265       -3.29574090790027        0.71864060531028
H           -1.75029018863991       -3.39483364089409       -1.03131930607460
H           -2.86594682196889       -2.25686166516758       -0.34903155388733
H            1.45850918208479       -3.20894877125506        0.18773619025856
25
 energy: 92.871101646134 xtb: 6.6.1 (8d0f1dd)
C            3.10061550862670        1.99957765888597        0.19315853429680
N            2.50675614004367       -0.07705818047389        0.04407639541891
C            2.66125141012069       -1.47384002279522        0.17743971852980
N            1.48032097727303       -2.22757055807649        0.12842271546020
C            0.42572829976559       -1.38925008375250       -0.04148620933182
C            1.09928447392616       -0.12801812855514       -0.13660190978313
C            0.31337597598818        0.99752842391705       -0.41595280928240
O            0.69052493885306        2.11430771384625       -0.77045247679873
N           -1.03572972028016        0.80745096044296       -0.09419209766692
C           -1.73796819258849        2.05835561687969        0.12391545553845
C           -1.72218336114898       -0.36411897881174       -0.05539119282836
O           -2.93639146482549       -0.33817832678669        0.01708823914590
N           -0.97647211879021       -1.57903538761153       -0.11181582672951
C           -1.91024774181934       -2.72765972725908       -0.19358625223796
H            3.82706141368513        2.52006423845352        0.86094665666263
H            3.26873937878934        2.59583638389550       -0.71799338442920
H            2.15403961887582        2.41800706930402        0.51201125305648
H            3.50089476508149       -2.13700182699962        0.29339780224906
H           -0.96837724094398        2.81278491094394       -0.08842652267358
H           -2.55617274746515        2.17550816501375       -0.57520772561754
H           -2.03761949926862        2.12380798295949        1.15223610453661
H           -2.03803729711943       -3.28491509657996        0.71757835233329
H           -1.75839872356457       -3.40009184798281       -1.02685219081332
H           -2.87440627975339       -2.25939157064357       -0.36126699492267
H            1.43562579151086       -3.24807059946996        0.19598827808147
25