25
 energy: 0.000000000000 xtb: 6.6.1 (8d0f1dd)
C            3.23720163006194        1.16630919979326        0.08434469647475
N            2.29877817382611        0.07527477071623        0.03981603040599
C            2.58028210190900       -1.21425402444508        0.03006176031096
N            1.43813958087363       -1.93419271955128        0.00098261760884
C            0.39035688448383       -1.05887472636071       -0.00790371836672
C            0.93510056364412        0.21347819449412        0.01709077491437
C            0.09450143893243        1.40504303904423       -0.00410947031874
O            0.49712751527797        2.54126714362870       -0.00342325688240
N           -1.25076640035757        1.06271879480407       -0.03085478223738
C           -2.21907211982101        2.15522099834493       -0.05001256985998
C           -1.81739487048744       -0.20012725993278       -0.04692818574614
O           -2.99983886758376       -0.37846417018721       -0.07008878229737
N           -0.92618586207120       -1.30210215599479       -0.03682761578324
C           -1.46982264913417       -2.64643102187190       -0.06029820460571
H            3.71247264356769        1.21471455160235        1.06488849150277
H            4.00791497605742        1.03430808813993       -0.67357694370751
H            2.69910007168542        2.09770118228144       -0.09130154882931
H            3.56654120610678       -1.63682992603973        0.04233140067262
H           -1.67107961066214        3.09322851271934       -0.02552706933167
H           -2.82428953597071        2.09428624779827       -0.95318082946668
H           -2.87644029173232        2.07745725625962        0.81450067533302
H           -1.17061996399332       -3.19584890659852        0.83242232437030
H           -1.14560257411436       -3.17511610292205       -0.95688275822323
H           -2.55549792440841       -2.55659984320617       -0.07459039797972
H            1.38130855184625       -2.94313852034425       -0.01389874181052
25
 energy: -5.437035971657 xtb: 6.6.1 (8d0f1dd)
C            3.24130315536993        1.18464246760722        0.08671467117899
N            2.30981567821275        0.09357543295404        0.03833376468412
C            2.59959959779247       -1.23635117605678        0.03056034967289
N            1.42662308101248       -1.94420521760045        0.00105474399977
C            0.39604359259699       -1.05994231207703       -0.00820418694922
C            0.93158337126319        0.21820185897611        0.01550948192814
C            0.10459327751584        1.39186762904533       -0.00521440342952
O            0.50305279735898        2.55697536512447       -0.00441032523350
N           -1.25764021219325        1.04833513157057       -0.03109523866183
C           -2.21539780352564        2.14628722316648       -0.04953219808638
C           -1.82299734910587       -0.20189581752067       -0.04743950689773
O           -3.01993725128382       -0.38225851326300       -0.07064588018431
N           -0.93516184102541       -1.30338408193133       -0.03727681958176
C           -1.47637122911041       -2.64418499038018       -0.06075146934777
H            3.72129199876091        1.24183081830735        1.06761522689629
H            4.01129063076197        1.06142271875570       -0.67646624384554
H            2.69083005639385        2.10725167045840       -0.08849685835377
H            3.57640818189443       -1.66569654800785        0.04309542493351
H           -1.65137831407959        3.07611563362140       -0.02578260581611
H           -2.82135726718807        2.09371929793949       -0.95354819704258
H           -2.87215722979009        2.07774127936879        0.81701694524732
H           -1.17496941130082       -3.19638940344928        0.83138502634520
H           -1.14945827507701       -3.17571167668819       -0.95658032641532
H           -2.56155029510951       -2.55071771907150       -0.07536836125589
H            1.35815572779188       -2.94820046867707       -0.01343911763771
25
 energy: -6.069268281341 xtb: 6.6.1 (8d0f1dd)
C            3.23974648133630        1.21521805827261        0.08972741084374
N            2.32703575755421        0.10409101687577        0.03642559895614
C            2.61738245606018       -1.26462903150092        0.03290692064865
N            1.41137099935190       -1.95314260621526        0.00255072183588
C            0.40161736823074       -1.06391285965302       -0.00880806933605
C            0.93364451981555        0.21725911108106        0.01282655707951
C            0.12098705603737        1.36631631244835       -0.00842003319587
O            0.50147560094650        2.55182186877666       -0.00826016131660
N           -1.26221641107264        1.02554139715594       -0.03206822731145
C           -2.19948793953956        2.13361131223367       -0.04801950852918
C           -1.82595392040114       -0.20864028890315       -0.04858299160866
O           -3.03075699352247       -0.39085277566076       -0.07156400880026
N           -0.94433002653204       -1.30616297676299       -0.03844740559214
C           -1.49054515828014       -2.64095621458986       -0.06240179882940
H            3.73244549341239        1.30641825523494        1.06622457444966
H            4.01208486300015        1.13552547103422       -0.68132340087155
H            2.66011480524801        2.12324930107718       -0.07898901743083
H            3.58155142259718       -1.71446159671634        0.04603818958831
H           -1.59919061576240        3.04239530267262       -0.02684472908593
H           -2.80856043745784        2.09550393889704       -0.95149904688754
H           -2.85364185608374        2.08218129230997        0.82263033727408
H           -1.19364869564067       -3.19912083128388        0.82904381436551
H           -1.16621051468728       -3.17845857616463       -0.95715111450242
H           -2.57531489283425       -2.53532850762561       -0.07815969042753
H            1.32261530615990       -2.95443777082159       -0.01080102516876
25
 energy: 1.445648645300 xtb: 6.6.1 (8d0f1dd)
C            3.21836442601471        1.28275691419631        0.09358079743955
N            2.36166836859539        0.10876401071077        0.03496549307003
C            2.64587082603820       -1.31702165922120        0.04026188713052
N            1.39338727958541       -1.97461619887835        0.00812487377876
C            0.41262562846602       -1.08131300086198       -0.00952331914392
C            0.94703764112876        0.20188495302566        0.00839736121008
C            0.15400089380920        1.31781260988047       -0.01652574247614
O            0.50064385235420        2.52839298809303       -0.01943572529580
N           -1.25996925388913        0.98253232458411       -0.03496671072697
C           -2.15192306895184        2.11471591369071       -0.04386735276541
C           -1.82525318359246       -0.22801082368704       -0.05146949953182
O           -3.03897257230140       -0.41115794012385       -0.07391249736730
N           -0.95355357958840       -1.31936112270049       -0.04144379060038
C           -1.52442691610493       -2.63950245612926       -0.06739302574351
H            3.73762506373556        1.45315898588116        1.05704017082745
H            3.99450067323921        1.31792504256939       -0.69498891955974
H            2.56114405968853        2.15261285441445       -0.05417600235549
H            3.58613489927894       -1.81302232921070        0.05492232295620
H           -1.47461655663264        2.97681034170653       -0.03062294782954
H           -2.76957898100507        2.10598485069379       -0.94341971173061
H           -2.79658152209408        2.09997387110763        0.83710546012342
H           -1.24863278560705       -3.21082293592281        0.82417830413971
H           -1.21507816431726       -3.18989311555456       -0.96121270747757
H           -2.60777212602918       -2.49678237435293       -0.08657609203170
H            1.26556976611544       -2.97279310173884       -0.00200872989255
25
 energy: 12.234260322613 xtb: 6.6.1 (8d0f1dd)
C            3.18687384398367        1.34437060271377        0.09507927234792
N            2.38971916378271        0.10599097940909        0.03639051865850
C            2.66925265772434       -1.35749428137624        0.04836883094309
N            1.39078661550524       -1.99977836566134        0.01537700001381
C            0.42361423396606       -1.10396679235258       -0.00946507799960
C            0.96395591010281        0.17882133551240        0.00572293857982
C            0.18109240959570        1.28277330433670       -0.02499764173628
O            0.51211437753957        2.50510672009381       -0.03178210498081
N           -1.24852830439822        0.95178846242861       -0.03841280025867
C           -2.10331131249787        2.10501117251927       -0.03936002530539
C           -1.81949212639822       -0.24585613623952       -0.05450010779717
O           -3.03892109341603       -0.42607909609338       -0.07633646048216
N           -0.95454087582948       -1.33743667043043       -0.04456417388165
C           -1.55729855434398       -2.64286229722822       -0.07334163161829
H            3.72641173681019        1.58024535603255        1.04426826829117
H            3.95749961285389        1.48422808271494       -0.70973038027916
H            2.45630255058769        2.17350064063548       -0.02953895400151
H            3.59015519234021       -1.89067534934544        0.06530805379218
H           -1.37136609440525        2.93025712759665       -0.03578459164583
H           -2.72962811378923        2.11791382437163       -0.93302680684929
H           -2.73445604808946        2.11921335286794        0.85260956194499
H           -1.30816425460093       -3.22650096809384        0.81933997062093
H           -1.26722122491917       -3.20493253306169       -0.96720843341202
H           -2.63809236082926       -2.45921669247514       -0.09651080418996
H            1.23545672666115       -2.99539317670306        0.00912947539263
25
 energy: 23.706058863391 xtb: 6.6.1 (8d0f1dd)
C            3.14897207784976        1.40490471418797        0.09524052540951
N            2.41283503175397        0.10183423919006        0.03967313885750
C            2.68995944932678       -1.38972636613526        0.05729268473358
N            1.39763492252790       -2.02732895804688        0.02408428844656
C            0.43481373310941       -1.13075894211981       -0.00900336967965
C            0.98182251521400        0.15109278868982        0.00378133119075
C            0.20600311612498        1.25285603691086       -0.03426749761675
O            0.53363232363082        2.47903804589227       -0.04525020498362
N           -1.23042994619499        0.92820190688516       -0.04235001335745
C           -2.05338030585355        2.10069475354704       -0.03408597014138
C           -1.80912458925745       -0.26189213972817       -0.05769937854881
O           -3.03218218950807       -0.43486282080467       -0.07873801357390
N           -0.95132358643186       -1.35926701572752       -0.04797291228162
C           -1.59105719171326       -2.64966163207265       -0.08048118481013
H            3.70281030109778        1.69719912075575        1.02906453773144
H            3.90333400295082        1.63632299390111       -0.72405725521453
H            2.35554962985355        2.19196269511089       -0.00643315317830
H            3.59400871043550       -1.95359843448519        0.07725878312281
H           -1.28605683075256        2.89765317351666       -0.04199423106828
H           -2.68903359053968        2.13009411456369       -0.91996215647886
H           -2.66704734294208        2.13822096974931        0.86980542163893
H           -1.37281865719987       -3.24580230674013        0.81335318188178
H           -1.32316130054388       -3.22329225773844       -0.97454508716588
H           -2.66783662725531       -2.42364688070623       -0.10817560804618
H            1.22429101225342       -3.02120919642367        0.02249603927971
25
 energy: 36.561801969235 xtb: 6.6.1 (8d0f1dd)
C            3.10844191833726        1.46662644225107        0.09476292205144
N            2.43223047237793        0.09890095932664        0.04414731837975
C            2.70859684099251       -1.41592716301275        0.06718840494154
N            1.40973975261247       -2.05589183741107        0.03396410764748
C            0.44582387111294       -1.16101300821988       -0.00840449637089
C            0.99910968771136        0.12070069660001        0.00188294502341
C            0.22941490128158        1.22285802856170       -0.04462248769709
O            0.55786333097167        2.45003253085954       -0.06024527204697
N           -1.20789621013594        0.90720308217331       -0.04674118035566
C           -2.00147143126604        2.09863919592418       -0.02764616665893
C           -1.79535363591873       -0.27710625201481       -0.06104286213850
O           -3.02099518366764       -0.43843752039363       -0.08100951876243
N           -0.94672263708455       -1.38432466456423       -0.05179994876167
C           -1.62723058646023       -2.65896292081670       -0.08900055431181
H            3.67067190316620        1.81203612689052        1.01303098487677
H            3.83813609177143        1.77761579490077       -0.73739889200600
H            2.26482290720718        2.21231434193414        0.01373121777434
H            3.59742926694251       -2.00605532811392        0.09092709311865
H           -1.20998875849395        2.87328730008177       -0.04901632841605
H           -2.64774113982307        2.14234708737474       -0.90402939953860
H           -2.59375779303551        2.15664975071595        0.88967182479151
H           -1.44326871654737       -3.26807829089973        0.80552380410341
H           -1.38360618765791       -3.24442948535538       -0.98302580112850
H           -2.69842326213175       -2.39071514532658       -0.12171770541327
H            1.22638926567376       -3.04924111929369        0.03790388704531
25
 energy: 51.238580618144 xtb: 6.6.1 (8d0f1dd)
C            3.06830640682199        1.52982090767607        0.09404142843979
N            2.44800593457106        0.09750206376227        0.04949050934475
C            2.72472839929941       -1.43666777820362        0.07793453800399
N            1.42549212961611       -2.08504525718218        0.04459005078382
C            0.45580466545736       -1.19471209318561       -0.00783427394865
C            1.01493112604132        0.08825289346377       -0.00024526252680
C            0.24935999094371        1.19169377195919       -0.05625715118573
O            0.57760401002881        2.41920867701390       -0.07757201903392
N           -1.18305075578947        0.88695948456823       -0.05148601206120
C           -1.94714724085863        2.09836949486727       -0.01976063599753
C           -1.77992991633152       -0.29253918890886       -0.06435344138027
O           -3.00742634405082       -0.43797752309221       -0.08287043454038
N           -0.94245706034229       -1.41288191938565       -0.05606478543144
C           -1.66633876602964       -2.67115064742148       -0.09887441205677
H            3.63154700750590        1.92813583315693        0.99775157218359
H            3.76782491919166        1.90879842820271       -0.74881267520496
H            2.18757834351793        2.23658296015106        0.02929112653486
H            3.60032344162615       -2.04820584566016        0.10607035556578
H           -1.13651445596488        2.85412835730260       -0.05650975190817
H           -2.60502457678057        2.15656057224855       -0.88523259785947
H           -2.51384739991381        2.17599334814038        0.91274401365025
H           -1.51910175420685       -3.29327987080911        0.79563439116205
H           -1.44843496138192       -3.26848106472396       -0.99251857989956
H           -2.73047430571942       -2.36264908238554       -0.13694055800363
H            1.24045583068444       -3.07938791938263        0.05481850151682
25
 energy: 58.228992150606 xtb: 6.6.1 (8d0f1dd)
C            3.02820967976021        1.61064660680081        0.08741887126575
N            2.45741376622981        0.07683480107322        0.06414375582985
C            2.70267630862814       -1.41741921025652        0.08960616345351
N            1.48620196269967       -2.12577086621328        0.05846514339721
C            0.45459160291651       -1.24853630222470       -0.00825728573582
C            1.06046309645605        0.02427530156823       -0.00112600167256
C            0.22968271691724        1.18976250888534       -0.07106885842454
O            0.58591833480512        2.36552994113949       -0.10438054682150
N           -1.12292062734459        0.89988794175439       -0.05711300496420
C           -1.88148037412387        2.11890850619202       -0.00762912200302
C           -1.75062156696099       -0.31147049223521       -0.06744786964721
O           -2.95781661881239       -0.41034958623446       -0.08368126141725
N           -0.91414382257512       -1.46682770179543       -0.06148114492483
C           -1.71495595939607       -2.70365061721268       -0.11291431338538
H            3.54547231604103        2.03976529895179        0.96067735537484
H            3.62546055905209        2.01552964585175       -0.74091843524098
H            2.18074312081523        2.25706993050558        0.04530409782075
H            3.56673543396967       -2.05962957170925        0.12467025618349
H           -1.12453551336718        2.87575137460080       -0.07014094159099
H           -2.54818916243659        2.17439405473047       -0.85213089994417
H           -2.39773741337496        2.19430747192027        0.93994512833287
H           -1.62672416989823       -3.32642100508491        0.77940328958408
H           -1.54052204063068       -3.30300943179583       -1.00595007828104
H           -2.75738206266014       -2.35072214596358       -0.15659781059233
H            1.32567510122610       -3.12982785107633        0.07823740955070
25
 energy: 85.221189456123 xtb: 6.6.1 (8d0f1dd)
C            3.03028010610508        1.68815166804626        0.09317372246657
N            2.49234806751090        0.07644077056481        0.07339827458942
C            2.72099218553706       -1.45017491342842        0.10801230321327
N            1.48819141844290       -2.15358763894198        0.07135142459325
C            0.46519333930398       -1.28060384249282       -0.00808759525223
C            1.08043582511933       -0.00460960818982       -0.00835946538519
C            0.25877121686579        1.13058286146838       -0.08926455044748
O            0.58554890739492        2.32803512205961       -0.14458316391442
N           -1.09994744896187        0.86035447067803       -0.06274307101661
C           -1.83279802362726        2.10070843588704        0.00495990216401
C           -1.73442076840628       -0.33059801391064       -0.07154730557652
O           -2.94894673429711       -0.40355561921188       -0.08565185700557
N           -0.91922500133816       -1.49503829748846       -0.06874805052144
C           -1.77013776044194       -2.70962607135738       -0.12848819504334
H            3.55358001221249        2.20648407423240        0.94934413601364
H            3.57950198062118        2.20012263223941       -0.76848775011075
H            2.11402219661857        2.28831084888919        0.08131595442060
H            3.55939144161324       -2.13060469060220        0.15028824003750
H           -1.04360700876595        2.84426281104792       -0.09172519470609
H           -2.52447615507478        2.17177758634817       -0.82090992579374
H           -2.30607987434498        2.20309769515445        0.98015295586191
H           -1.73144353172000       -3.34977911228430        0.76261024452962
H           -1.62829000323148       -3.32681829840534       -1.01988179713442
H           -2.80202658773295       -2.31306271022159       -0.18055105962433
H            1.32535686853332       -3.16124155790892        0.10145571978953
25
 energy: 119.884724517505 xtb: 6.6.1 (8d0f1dd)
C            3.05297669261527        1.79577748817459        0.10216111445660
N            2.52508265115764        0.05809689433357        0.08307627037282
C            2.71689548801079       -1.48502750274465        0.12546228942327
N            1.47977248620247       -2.18731644089387        0.07816644537876
C            0.46104151823891       -1.31780974266466       -0.01003469159778
C            1.10175724319416       -0.04422730178528       -0.02048462444531
C            0.29353504374709        1.06409303158012       -0.10956816311492
O            0.61857803927802        2.26546544760854       -0.20344621953341
N           -1.07033305623034        0.82685655111062       -0.06227089037550
C           -1.79253736657972        2.08032185011585        0.02048877981521
C           -1.72310820123969       -0.34733067094510       -0.07208774262050
O           -2.94161722277572       -0.38123307581949       -0.08368666873229
N           -0.93436323102271       -1.52585461307021       -0.07646481079559
C           -1.82793428137991       -2.71924004020538       -0.14340629659914
H            3.57667333317731        2.40166968396033        0.93209310044702
H            3.54274612498435        2.39231926624702       -0.76892341187904
H            2.08742022153343        2.34018707218174        0.12162600354661
H            3.52739785509176       -2.20407423685017        0.17179326742015
H           -0.98777607488565        2.81968934238092       -0.11703174019675
H           -2.50974884682353        2.15939169791157       -0.78290105666341
H           -2.21730741236304        2.20245962389639        1.01703617354236
H           -1.82983534145203       -3.36378351087227        0.74313521999279
H           -1.71245595453068       -3.34594558421743       -1.03158091985056
H           -2.84470589157905       -2.29445715642203       -0.20224292283197
H            1.32006085156683       -3.20099947083877        0.11612539098777
25
 energy: 155.075317397264 xtb: 6.6.1 (8d0f1dd)
C            3.10675081204638        1.93199739422135        0.11232203353550
N            2.56081952210813        0.02098640435584        0.09278062092430
C            2.69898323231427       -1.52239588968289        0.14663022352918
N            1.46046318126888       -2.22110829904596        0.08348969250437
C            0.44857999117117       -1.35888073976796       -0.01229983907547
C            1.12045257577353       -0.08867584926170       -0.03954898266358
C            0.34297382992349        0.96856618360262       -0.12551774495191
O            0.66875656432174        2.17696640272232       -0.27457891347402
N           -1.03478756911125        0.78354092882280       -0.05606284971912
C           -1.75670928925592        2.05284694196198        0.03982354285782
C           -1.70974244795584       -0.36681003487743       -0.07316401850471
O           -2.93319849506317       -0.34544276405660       -0.08383070973828
N           -0.96032855165324       -1.56037705628439       -0.08550902831192
C           -1.89307384136427       -2.72946388813354       -0.15972756845755
H            3.61801994108055        2.63404414853614        0.91253957605129
H            3.50524712887723        2.61734201293431       -0.77104536366712
H            2.05259866428397        2.39416195816181        0.17615153456270
H            3.47770450394533       -2.27833838917463        0.19612983096420
H           -0.92506503345314        2.79668153480093       -0.15090079069805
H           -2.50060948979407        2.14668461955675       -0.73976046110708
H           -2.12077173073541        2.20141279299530        1.05750512614913
H           -1.94037493775155       -3.37307444653952        0.71783716795739
H           -1.80597351044539       -3.36498449103733       -1.04244624772908
H           -2.88726140389621       -2.28117058125275       -0.22685439605031
H            1.31876102130074       -3.24548029138556        0.13307146125953
25
 energy: 177.582092659397 xtb: 6.6.1 (8d0f1dd)
C            3.13380505734345        2.04900721325510        0.11548007243903
N            2.58990570148721       -0.03067419502166        0.11504657344831
C            2.68286436057626       -1.55340028709094        0.16598730013533
N            1.45652748896712       -2.25898900517207        0.08848456640518
C            0.44000596093379       -1.40359056643095       -0.01425542957064
C            1.14719990750629       -0.14482620828671       -0.04979244428123
C            0.37562230904141        0.89493066758751       -0.14276968707670
O            0.70705790429985        2.09931443796354       -0.32628087723307
N           -0.99701567988956        0.75150431070387       -0.05157978004013
C           -1.72001230022532        2.03388950601670        0.05511971178561
C           -1.69332042259773       -0.38518490578974       -0.07347021213122
O           -2.91804037929649       -0.31527040058251       -0.08629635926996
N           -0.97450076610677       -1.59621266832697       -0.09343238459207
C           -1.95288463597847       -2.74044078679650       -0.17457208953807
H            3.63697028740722        2.85370394890903        0.88452640710123
H            3.44472549499142        2.83248117105759       -0.77531047352207
H            2.03453466742360        2.43995124054348        0.22033555798734
H            3.43741104749463       -2.34546637345062        0.21766373232013
H           -0.86851501951626        2.77967589576588       -0.17529385775597
H           -2.48203359687728        2.14239328336593       -0.70575568805830
H           -2.02995747781534        2.20580667789474        1.09153579421025
H           -2.04665881938464       -3.38512941331517        0.69584056471364
H           -1.89502628174545       -3.38423115748578       -1.05273390971418
H           -2.92548423190973       -2.25804086703812       -0.24983821071320
H            1.32903409180669       -3.29217291610372        0.14839501909793
25
 energy: 165.670964762111 xtb: 6.6.1 (8d0f1dd)
C            3.19339215738007        2.13672986408767        0.09469025207794
N            2.59350238177607       -0.21468901953516        0.19217588415027
C            2.61084515353388       -1.50914839149521        0.18358462498187
N            1.49306172163451       -2.25303264268267        0.08255409501475
C            0.41918799333811       -1.42440906072888       -0.01863475425460
C            1.20729623493782       -0.22071893521335       -0.06425080745521
C            0.34918675540879        0.85384621312424       -0.16584700900319
O            0.66264787777960        2.02370462814329       -0.36315326741459
N           -0.94134769718187        0.74323965768764       -0.04750257652668
C           -1.73939961659713        2.01924790268102        0.06869202471117
C           -1.66527193942911       -0.41075396664539       -0.07323906250108
O           -2.87557188501650       -0.27477746538714       -0.09429812994748
N           -0.96187708117892       -1.62858777591908       -0.10061894316558
C           -1.98471340284202       -2.74779582610291       -0.18259783715544
H            3.63098455616667        2.97613962602934        0.83730206243027
H            3.31818635180248        2.97883334562029       -0.77430437428484
H            2.08696104360038        2.40900249966599        0.26968254455419
H            3.38420280836148       -2.33668302904989        0.23018183010061
H           -0.82100879050768        2.78669950064420       -0.20338989249572
H           -2.48534691270033        2.16115801173645       -0.68958108520776
H           -1.95663561517276        2.22881243634247        1.12986689988184
H           -2.13471523916383       -3.38338645324609        0.66759535146066
H           -1.96338070122017       -3.39203650065808       -1.05293577458307
H           -2.91857045455109       -2.22389067766622       -0.26827264197278
H            1.41059896777743       -3.30847533926061        0.16933448275165
25
 energy: 173.845823657260 xtb: 6.6.1 (8d0f1dd)
C            3.20700590299855        2.24872749041002        0.08904000509229
N            2.60622841293971       -0.24453265592550        0.18190846580948
C            2.61476016981008       -1.56692200301855        0.20709145371353
N            1.45431361565891       -2.28779189319091        0.08372728157984
C            0.41545112909566       -1.44697528906405       -0.02135251914459
C            1.19535188510644       -0.23330002644879       -0.07590185493121
C            0.41505133038724        0.79460901793222       -0.16385333887472
O            0.73296650752254        1.98372920181739       -0.39786219437771
N           -0.93860431727909        0.70780528404275       -0.02977098408832
C           -1.71217107682981        2.00083754784573        0.07996346089428
C           -1.66423749250494       -0.42182555198068       -0.06920680763555
O           -2.88351495640493       -0.27400439671571       -0.09367987482144
N           -0.98850875697101       -1.64167893698267       -0.10561781491242
C           -2.01929243416609       -2.75164636892944       -0.19217147541542
H            3.65011808598367        3.13478527542683        0.82405346616616
H            3.31952693229611        3.12860430915525       -0.76227305733692
H            2.07640374349391        2.47514658129413        0.27422694188741
H            3.37788282260195       -2.40452901309693        0.25123817295160
H           -0.78629912612414        2.77161641301068       -0.19843282088321
H           -2.46450331442874        2.14977231679183       -0.67172962670376
H           -1.91466821228852        2.21760096180847        1.13346073536315
H           -2.18951053598224       -3.39484834201430        0.65896881047441
H           -2.00617453944483       -3.40489461435012       -1.06212474536088
H           -2.95070924832431       -2.20879333449509       -0.28411289902459
H            1.36534814078970       -3.34246337115068        0.17144511572571
25