      -----------------------------------------------------------      
     |                   =====================                   |     
     |                           x T B                           |     
     |                   =====================                   |     
     |                         S. Grimme                         |     
     |          Mulliken Center for Theoretical Chemistry        |     
     |                    University of Bonn                     |     
      -----------------------------------------------------------      

   * xtb version 6.6.1 (8d0f1dd) compiled by 'conda@1efc2f54142f' on 2023-08-01

   xtb is free software: you can redistribute it and/or modify it under
   the terms of the GNU Lesser General Public License as published by
   the Free Software Foundation, either version 3 of the License, or
   (at your option) any later version.
   
   xtb is distributed in the hope that it will be useful,
   but WITHOUT ANY WARRANTY; without even the implied warranty of
   MERCHANTABILITY or FITNESS FOR A PARTICULAR PURPOSE.  See the
   GNU Lesser General Public License for more details.
   
   Cite this work as:
   * C. Bannwarth, E. Caldeweyher, S. Ehlert, A. Hansen, P. Pracht,
     J. Seibert, S. Spicher, S. Grimme, WIREs Comput. Mol. Sci., 2020, 11,
     e01493. DOI: 10.1002/wcms.1493
   
   for GFN2-xTB:
   * C. Bannwarth, S. Ehlert and S. Grimme., J. Chem. Theory Comput., 2019,
     15, 1652-1671. DOI: 10.1021/acs.jctc.8b01176
   for GFN1-xTB:
   * S. Grimme, C. Bannwarth, P. Shushkov, J. Chem. Theory Comput., 2017,
     13, 1989-2009. DOI: 10.1021/acs.jctc.7b00118
   for GFN0-xTB:
   * P. Pracht, E. Caldeweyher, S. Ehlert, S. Grimme, ChemRxiv, 2019, preprint.
     DOI: 10.26434/chemrxiv.8326202.v1
   for GFN-FF:
   * S. Spicher and S. Grimme, Angew. Chem. Int. Ed., 2020, 59, 15665-15673.
     DOI: 10.1002/anie.202004239
   
   for ALPB and GBSA implicit solvation:
   * S. Ehlert, M. Stahn, S. Spicher, S. Grimme, J. Chem. Theory Comput.,
     2021, 17, 4250-4261. DOI: 10.1021/acs.jctc.1c00471
   
   for DFT-D4:
   * E. Caldeweyher, C. Bannwarth and S. Grimme, J. Chem. Phys., 2017,
     147, 034112. DOI: 10.1063/1.4993215
   * E. Caldeweyher, S. Ehlert, A. Hansen, H. Neugebauer, S. Spicher,
     C. Bannwarth and S. Grimme, J. Chem. Phys., 2019, 150, 154122.
     DOI: 10.1063/1.5090222
   * E. Caldeweyher, J.-M. Mewes, S. Ehlert and S. Grimme, Phys. Chem. Chem. Phys.
     2020, 22, 8499-8512. DOI: 10.1039/D0CP00502A
   
   for sTDA-xTB:
   * S. Grimme and C. Bannwarth, J. Chem. Phys., 2016, 145, 054103.
     DOI: 10.1063/1.4959605
   
   in the mass-spec context:
   * V. Asgeirsson, C. Bauer and S. Grimme, Chem. Sci., 2017, 8, 4879.
     DOI: 10.1039/c7sc00601b
   * J. Koopman and S. Grimme, ACS Omega 2019, 4, 12, 15120-15133.
     DOI: 10.1021/acsomega.9b02011
   
   for metadynamics refer to:
   * S. Grimme, J. Chem. Theory Comput., 2019, 155, 2847-2862
     DOI: 10.1021/acs.jctc.9b00143
   
   for SPH calculations refer to:
   * S. Spicher and S. Grimme, J. Chem. Theory Comput., 2021, 17, 1701-1714
     DOI: 10.1021/acs.jctc.0c01306
   
   with help from (in alphabetical order)
   P. Atkinson, C. Bannwarth, F. Bohle, G. Brandenburg, E. Caldeweyher
   M. Checinski, S. Dohm, S. Ehlert, S. Ehrlich, I. Gerasimov, C. Hölzer
   A. Katbashev, J. Koopman, C. Lavigne, S. Lehtola, F. März, M. Müller,
   F. Musil, H. Neugebauer, J. Pisarek, C. Plett, P. Pracht, F. Pultar,
   J. Seibert, P. Shushkov, S. Spicher, M. Stahn, M. Steiner, T. Strunk,
   J. Stückrath, T. Rose, and J. Unsleber
   
 * started run on 2024/06/05 at 19:58:09.033     

           -------------------------------------------------
          |                Calculation Setup                |
           -------------------------------------------------

          program call               : xtb struc.xyz --opt loose --input .xc1 --gfn2
          hostname                   : n-62-21-70
          coordinate file            : struc.xyz
          omp threads                :                     1

   ID    Z sym.   atoms
    1    6 C      1, 3, 5-7, 10, 11, 14
    2    7 N      2, 4, 9, 13
    3    8 O      8, 12
    4    1 H      15-25
constraining bond 3 25 to    2.7133300 Å, actual value:    2.1044033 Å

           -------------------------------------------------
          |                 G F N 2 - x T B                 |
           -------------------------------------------------

        Reference                      10.1021/acs.jctc.8b01176
      * Hamiltonian:
        H0-scaling (s, p, d)           1.850000    2.230000    2.230000
        zeta-weighting                 0.500000
      * Dispersion:
        s8                             2.700000
        a1                             0.520000
        a2                             5.000000
        s9                             5.000000
      * Repulsion:
        kExp                           1.500000    1.000000
        rExp                           1.000000
      * Coulomb:
        alpha                          2.000000
        third order                    shell-resolved
        anisotropic                    true
        a3                             3.000000
        a5                             4.000000
        cn-shift                       1.200000
        cn-exp                         4.000000
        max-rad                        5.000000


          ...................................................
          :                      SETUP                      :
          :.................................................:
          :  # basis functions                  67          :
          :  # atomic orbitals                  67          :
          :  # shells                           39          :
          :  # electrons                        74          :
          :  max. iterations                   250          :
          :  Hamiltonian                  GFN2-xTB          :
          :  restarted?                      false          :
          :  GBSA solvation                  false          :
          :  PC potential                    false          :
          :  electronic temp.         5000.0000000     K    :
          :  accuracy                    1.0000000          :
          :  -> integral cutoff          0.2500000E+02      :
          :  -> integral neglect         0.1000000E-07      :
          :  -> SCF convergence          0.1000000E-05 Eh   :
          :  -> wf. convergence          0.1000000E-03 e    :
          :  Broyden damping             0.4000000          :
          ...................................................

 iter      E             dE          RMSdq      gap      omega  full diag
   1    -42.5894031 -0.425894E+02  0.445E+00    3.52       0.0  T
   2    -42.7683054 -0.178902E+00  0.251E+00    3.36       1.0  T
   3    -42.7759211 -0.761567E-02  0.147E+00    3.35       1.0  T
   4    -42.7728404  0.308066E-02  0.553E-01    3.33       1.0  T
   5    -42.7789548 -0.611444E-02  0.112E-01    3.35       1.0  T
   6    -42.7790473 -0.924914E-04  0.614E-02    3.33       1.0  T
   7    -42.7790721 -0.247928E-04  0.258E-02    3.34       1.0  T
   8    -42.7790772 -0.508996E-05  0.938E-03    3.34       2.1  T
   9    -42.7790779 -0.669422E-06  0.448E-03    3.34       4.5  T
  10    -42.7790780 -0.821511E-07  0.115E-03    3.34      17.4  T
  11    -42.7790780 -0.322662E-08  0.553E-04    3.34      36.2  T
  12    -42.7790780 -0.287052E-08  0.180E-04    3.34     111.1  T

   *** convergence criteria satisfied after 12 iterations ***

         #    Occupation            Energy/Eh            Energy/eV
      -------------------------------------------------------------
         1        2.0000           -0.9185990             -24.9964
       ...           ...                  ...                  ...
        31        1.9996           -0.6230278             -16.9534
        32        1.9995           -0.6194601             -16.8564
        33        1.9979           -0.5974976             -16.2587
        34        1.9932           -0.5789629             -15.7544
        35        1.9817           -0.5631863             -15.3251
        36        1.9779           -0.5602245             -15.2445
        37        1.9748           -0.5581234             -15.1873 (HOMO)
        38        0.0652           -0.4353579             -11.8467 (LUMO)
        39        0.0099           -0.4050467             -11.0219
        40        0.0013           -0.3732218             -10.1559
        41        0.0000           -0.2886859              -7.8555
        42                         -0.2065804              -5.6213
       ...                                ...                  ...
        67                          0.5625656              15.3082
      -------------------------------------------------------------
                  HL-Gap            0.1227656 Eh            3.3406 eV
             Fermi-level           -0.4890455 Eh          -13.3076 eV

 SCC (total)                   0 d,  0 h,  0 min,  0.038 sec
 SCC setup                      ...        0 min,  0.000 sec (  0.892%)
 Dispersion                     ...        0 min,  0.000 sec (  1.160%)
 classical contributions        ...        0 min,  0.000 sec (  0.303%)
 integral evaluation            ...        0 min,  0.007 sec ( 17.606%)
 iterations                     ...        0 min,  0.017 sec ( 45.431%)
 molecular gradient             ...        0 min,  0.013 sec ( 34.150%)
 printout                       ...        0 min,  0.000 sec (  0.418%)

         :::::::::::::::::::::::::::::::::::::::::::::::::::::
         ::                     SUMMARY                     ::
         :::::::::::::::::::::::::::::::::::::::::::::::::::::
         :: total energy             -44.896100435418 Eh    ::
         :: gradient norm              6.510271516707 Eh/a0 ::
         :: HOMO-LUMO gap              3.340621582928 eV    ::
         ::.................................................::
         :: SCC energy               -42.779077977399 Eh    ::
         :: -> isotropic ES            0.141123876439 Eh    ::
         :: -> anisotropic ES         -0.005230418907 Eh    ::
         :: -> anisotropic XC          0.011966818540 Eh    ::
         :: -> dispersion             -0.022657731803 Eh    ::
         :: repulsion energy           0.531105277918 Eh    ::
         :: add. restraining          -2.648241894946 Eh    ::
         :: total charge               1.000000000002 e     ::
         :::::::::::::::::::::::::::::::::::::::::::::::::::::

      ----------------------------------------------------------- 
     |                   =====================                   |
     |                        A N C O P T                        |
     |                   =====================                   |
     |               Approximate Normal Coordinate               |
     |                Rational Function Optimizer                |
      ----------------------------------------------------------- 

          ...................................................
          :                      SETUP                      :
          :.................................................:
          :   optimization level             loose          :
          :   max. optcycles                   200          :
          :   ANC micro-cycles                  20          :
          :   degrees of freedom                69          :
          :.................................................:
          :   RF solver                   davidson          :
          :   write xtbopt.log                true          :
          :   linear?                        false          :
          :   energy convergence         0.5000000E-04 Eh   :
          :   grad. convergence          0.4000000E-02 Eh/α :
          :   maxmium RF displ.          1.0000000          :
          :   Hlow (freq-cutoff)         0.1000000E-01      :
          :   Hmax (freq-cutoff)         5.0000000          :
          :   S6 in model hess.         20.0000000          :
          ...................................................

generating ANC from model Hessian ...
Using Lindh-Hessian (1995)
 Shifting diagonal of input Hessian by    7.1815751706915325     
 Lowest  eigenvalues of input Hessian
    0.010000    0.000000    0.000000    0.000000    0.000000    0.000000
    0.000000    7.184623    7.185709    7.187164    7.190644    7.191443
    7.193529    7.193650    7.195820    7.204353    7.205972    7.222390
 Highest eigenvalues
    9.355553    9.441849    9.549454    9.590640    9.723567   10.542463


........................................................................
.............................. CYCLE    1 ..............................
........................................................................

 iter      E             dE          RMSdq      gap      omega  full diag
   1    -42.7790780 -0.427791E+02  0.626E-05    3.34       0.0  T
   2    -42.7790780 -0.124203E-10  0.329E-05    3.34     607.4  T
   3    -42.7790780  0.106581E-12  0.193E-05    3.34    1034.2  T
     SCC iter.                  ...        0 min,  0.005 sec
     gradient                   ...        0 min,  0.013 sec
 * total energy  :   -44.8961004 Eh     change       -0.6650680E-10 Eh
   gradient norm :     6.5102715 Eh/α   predicted     0.0000000E+00 (-100.00%)
   displ. norm   :     0.9985705 α      lambda       -0.6494169E+01
   maximum displ.:     0.9977083 α      in ANC's #1, #9, #8, ...

........................................................................
.............................. CYCLE    2 ..............................
........................................................................

 iter      E             dE          RMSdq      gap      omega  full diag
   1    -42.6889923 -0.426890E+02  0.178E+00    2.99       0.0  T
   2    -42.7198155 -0.308233E-01  0.121E+00    2.97       1.0  T
   3    -42.7325249 -0.127093E-01  0.573E-01    2.91       1.0  T
   4    -42.7325560 -0.311037E-04  0.351E-01    2.95       1.0  T
   5    -42.7338874 -0.133149E-02  0.779E-02    2.90       1.0  T
   6    -42.7339959 -0.108416E-03  0.242E-02    2.92       1.0  T
   7    -42.7339983 -0.242583E-05  0.946E-03    2.92       2.1  T
   8    -42.7339988 -0.518387E-06  0.243E-03    2.92       8.2  T
   9    -42.7339989 -0.456434E-07  0.111E-03    2.92      18.1  T
  10    -42.7339989 -0.574057E-08  0.360E-04    2.92      55.6  T
  11    -42.7339989 -0.140530E-08  0.911E-05    2.92     219.5  T
     SCC iter.                  ...        0 min,  0.015 sec
     gradient                   ...        0 min,  0.013 sec
 * total energy  :   -54.9835602 Eh     change       -0.1008746E+02 Eh
   gradient norm :    13.5243652 Eh/α   predicted    -0.6488403E+01 ( -35.68%)
   displ. norm   :     0.9989880 α      lambda       -0.1350743E+02
   maximum displ.:     0.9972466 α      in ANC's #1, #9, #7, ...

........................................................................
.............................. CYCLE    3 ..............................
........................................................................

 iter      E             dE          RMSdq      gap      omega  full diag
   1    -42.4159045 -0.424159E+02  0.238E+00    2.70       0.0  T
   2    -42.4784646 -0.625601E-01  0.192E+00    2.27       1.0  T
   3    -42.5221008 -0.436362E-01  0.734E-01    2.28       1.0  T
   4    -42.5199721  0.212870E-02  0.632E-01    2.16       1.0  T
   5    -42.5255679 -0.559573E-02  0.114E-01    2.13       1.0  T
   6    -42.5256684 -0.100520E-03  0.264E-02    2.17       1.0  T
   7    -42.5256739 -0.554440E-05  0.125E-02    2.16       1.6  T
   8    -42.5256740 -0.519733E-07  0.510E-03    2.16       3.9  T
   9    -42.5256743 -0.343398E-06  0.138E-03    2.16      14.5  T
  10    -42.5256744 -0.157537E-07  0.743E-04    2.16      26.9  T
  11    -42.5256744 -0.280950E-08  0.290E-04    2.16      68.9  T
     SCC iter.                  ...        0 min,  0.015 sec
     gradient                   ...        0 min,  0.013 sec
 * total energy  :   -71.4028303 Eh     change       -0.1641927E+02 Eh
   gradient norm :    18.9670948 Eh/α   predicted    -0.1349383E+02 ( -17.82%)
   displ. norm   :     0.9904763 α      lambda       -0.1874457E+02
   maximum displ.:     0.9548820 α      in ANC's #1, #12, #2, ...

........................................................................
.............................. CYCLE    4 ..............................
........................................................................

 iter      E             dE          RMSdq      gap      omega  full diag
   1    -42.4104059 -0.424104E+02  0.334E+00    0.30       0.0  T
   2    -42.4833936 -0.729877E-01  0.208E+00    1.84       1.0  T
   3    -42.6036072 -0.120214E+00  0.699E-01    0.79       1.0  T
   4    -42.6033123  0.294828E-03  0.438E-01    0.74       1.0  T
   5    -42.6052703 -0.195801E-02  0.180E-01    0.74       1.0  T
   6    -42.6060049 -0.734517E-03  0.709E-02    0.81       1.0  T
   7    -42.6061144 -0.109527E-03  0.290E-02    0.82       1.0  T
   8    -42.6061313 -0.168822E-04  0.106E-02    0.81       1.9  T
   9    -42.6061317 -0.410053E-06  0.360E-03    0.80       5.5  T
  10    -42.6061319 -0.190702E-06  0.103E-03    0.81      19.5  T
  11    -42.6061319 -0.209699E-07  0.397E-04    0.81      50.4  T
  12    -42.6061319 -0.630386E-09  0.175E-04    0.81     114.2  T
     SCC iter.                  ...        0 min,  0.016 sec
     gradient                   ...        0 min,  0.013 sec
 * total energy  :   -67.7332955 Eh     change        0.3669535E+01 Eh
   gradient norm :   174.5144748 Eh/α   predicted    -0.1856690E+02 (-605.97%)
   displ. norm   :     0.9994160 α      lambda       -0.1741590E+03
   maximum displ.:     0.9798216 α      in ANC's #1, #2, #12, ...

........................................................................
.............................. CYCLE    5 ..............................
........................................................................

 iter      E             dE          RMSdq      gap      omega  full diag
   1    -42.5413157 -0.425413E+02  0.217E+00    0.23       0.0  T
   2    -42.5388129  0.250274E-02  0.141E+00    1.04       1.0  T
   3    -42.5767773 -0.379644E-01  0.869E-01    0.14       1.0  T
   4    -42.5828106 -0.603324E-02  0.244E-01    0.41       1.0  T
   5    -42.5844370 -0.162639E-02  0.627E-02    0.40       1.0  T
   6    -42.5844673 -0.303452E-04  0.442E-02    0.39       1.0  T
   7    -42.5845064 -0.390470E-04  0.151E-02    0.39       1.3  T
   8    -42.5845072 -0.864785E-06  0.660E-03    0.39       3.0  T
   9    -42.5845079 -0.635689E-06  0.176E-03    0.39      11.3  T
  10    -42.5845079 -0.550285E-07  0.580E-04    0.39      34.5  T
  11    -42.5845079 -0.305366E-08  0.220E-04    0.39      90.9  T
     SCC iter.                  ...        0 min,  0.015 sec
     gradient                   ...        0 min,  0.013 sec
 * total energy  :   -66.1558621 Eh     change        0.1577433E+01 Eh
   gradient norm :    19.1415474 Eh/α   predicted    -0.1743081E+03 (*******%)
   displ. norm   :     0.5324297 α      lambda       -0.3416377E+01
   maximum displ.:     0.4063218 α      in ANC's #2, #1, #14, ...

........................................................................
.............................. CYCLE    6 ..............................
........................................................................

 iter      E             dE          RMSdq      gap      omega  full diag
   1    -42.2270963 -0.422271E+02  0.264E+00    0.44       0.0  T
   2    -41.5669874  0.660109E+00  0.454E+00    1.74       1.0  T
   3    -42.4689554 -0.901968E+00  0.912E-01    0.26       1.0  T
   4    -42.4631738  0.578166E-02  0.879E-01    0.32       1.0  T
   5    -42.4771638 -0.139900E-01  0.491E-01    0.25       1.0  T
   6    -42.4799329 -0.276909E-02  0.149E-01    0.26       1.0  T
   7    -42.4807278 -0.794931E-03  0.656E-02    0.24       1.0  T
   8    -42.4807399 -0.120617E-04  0.416E-02    0.24       1.0  T
   9    -42.4807463 -0.646134E-05  0.549E-03    0.24       3.6  T
  10    -42.4807467 -0.343682E-06  0.377E-03    0.24       5.3  T
  11    -42.4807469 -0.210949E-06  0.622E-04    0.24      32.1  T
  12    -42.4807469 -0.338161E-08  0.311E-04    0.24      64.4  T
     SCC iter.                  ...        0 min,  0.016 sec
     gradient                   ...        0 min,  0.013 sec
 * total energy  :   -67.2512295 Eh     change       -0.1095367E+01 Eh
   gradient norm :    19.5473320 Eh/α   predicted    -0.2192452E+01 ( 100.16%)
   displ. norm   :     0.7063641 α      lambda       -0.9527630E+01
   maximum displ.:     0.3172079 α      in ANC's #12, #1, #2, ...

........................................................................
.............................. CYCLE    7 ..............................
........................................................................

 iter      E             dE          RMSdq      gap      omega  full diag
   1    -42.3742615 -0.423743E+02  0.255E+00    0.87       0.0  T
   2    -41.6291330  0.745129E+00  0.425E+00    1.02       1.0  T
   3    -42.4185889 -0.789456E+00  0.154E+00    0.55       1.0  T
   4    -42.4900106 -0.714217E-01  0.388E-01    0.43       1.0  T
   5    -42.4903731 -0.362514E-03  0.230E-01    0.42       1.0  T
   6    -42.4916524 -0.127935E-02  0.114E-01    0.40       1.0  T
   7    -42.4917109 -0.585082E-04  0.621E-02    0.40       1.0  T
   8    -42.4918251 -0.114205E-03  0.115E-02    0.40       1.7  T
   9    -42.4918278 -0.270133E-05  0.437E-03    0.40       4.6  T
  10    -42.4918280 -0.212724E-06  0.180E-03    0.40      11.1  T
  11    -42.4918281 -0.567788E-07  0.514E-04    0.40      38.9  T
  12    -42.4918281 -0.371001E-08  0.245E-04    0.40      81.5  T
     SCC iter.                  ...        0 min,  0.016 sec
     gradient                   ...        0 min,  0.013 sec
 * total energy  :   -76.0230406 Eh     change       -0.8771811E+01 Eh
   gradient norm :    17.9996749 Eh/α   predicted    -0.7140724E+01 ( -18.59%)
   displ. norm   :     0.8731158 α      lambda       -0.1538136E+02
   maximum displ.:     0.7854364 α      in ANC's #1, #2, #7, ...

........................................................................
.............................. CYCLE    8 ..............................
........................................................................

 iter      E             dE          RMSdq      gap      omega  full diag
   1    -42.6010109 -0.426010E+02  0.124E+00    0.62       0.0  T
   2    -42.6033104 -0.229951E-02  0.940E-01    0.65       1.0  T
   3    -42.6089707 -0.566023E-02  0.524E-01    0.73       1.0  T
   4    -42.6114834 -0.251271E-02  0.205E-01    0.67       1.0  T
   5    -42.6122958 -0.812482E-03  0.742E-02    0.69       1.0  T
   6    -42.6123786 -0.827484E-04  0.297E-02    0.69       1.0  T
   7    -42.6123877 -0.906817E-05  0.181E-02    0.69       1.1  T
   8    -42.6123949 -0.727259E-05  0.386E-03    0.69       5.2  T
   9    -42.6123952 -0.252717E-06  0.140E-03    0.69      14.3  T
  10    -42.6123952 -0.244488E-07  0.543E-04    0.69      36.8  T
  11    -42.6123952 -0.272479E-08  0.167E-04    0.69     119.7  T
     SCC iter.                  ...        0 min,  0.015 sec
     gradient                   ...        0 min,  0.013 sec
 * total energy  :   -78.3634843 Eh     change       -0.2340444E+01 Eh
   gradient norm :    27.0499094 Eh/α   predicted    -0.1355355E+02 ( 479.10%)
   displ. norm   :     0.9028049 α      lambda       -0.2406987E+02
   maximum displ.:     0.6583921 α      in ANC's #1, #2, #12, ...

........................................................................
.............................. CYCLE    9 ..............................
........................................................................

 iter      E             dE          RMSdq      gap      omega  full diag
   1    -42.5903620 -0.425904E+02  0.161E+00    1.24       0.0  T
   2    -42.5923547 -0.199275E-02  0.113E+00    0.84       1.0  T
   3    -42.6250524 -0.326976E-01  0.602E-01    1.12       1.0  T
   4    -42.6298226 -0.477025E-02  0.241E-01    1.05       1.0  T
   5    -42.6307794 -0.956799E-03  0.103E-01    1.00       1.0  T
   6    -42.6310952 -0.315803E-03  0.277E-02    1.03       1.0  T
   7    -42.6310960 -0.845546E-06  0.166E-02    1.03       1.2  T
   8    -42.6310990 -0.299233E-05  0.438E-03    1.03       4.6  T
   9    -42.6310993 -0.298377E-06  0.163E-03    1.03      12.2  T
  10    -42.6310993 -0.104546E-07  0.771E-04    1.03      25.9  T
  11    -42.6310994 -0.139710E-07  0.188E-04    1.03     106.3  T
     SCC iter.                  ...        0 min,  0.015 sec
     gradient                   ...        0 min,  0.013 sec
 * total energy  :   -66.3517368 Eh     change        0.1201175E+02 Eh
   gradient norm :    19.4009639 Eh/α   predicted    -0.2184411E+02 (-281.86%)
   displ. norm   :     0.3409932 α      lambda       -0.6537584E+01
   maximum displ.:     0.2679478 α      in ANC's #1, #2, #12, ...

........................................................................
.............................. CYCLE   10 ..............................
........................................................................

 iter      E             dE          RMSdq      gap      omega  full diag
   1    -42.6457148 -0.426457E+02  0.647E-01    0.65       0.0  T
   2    -42.6451759  0.538888E-03  0.514E-01    0.86       1.0  T
   3    -42.6518134 -0.663748E-02  0.247E-01    0.75       1.0  T
   4    -42.6519247 -0.111370E-03  0.123E-01    0.75       1.0  T
   5    -42.6523740 -0.449240E-03  0.225E-02    0.77       1.0  T
   6    -42.6523847 -0.107395E-04  0.101E-02    0.77       2.0  T
   7    -42.6523858 -0.114688E-05  0.447E-03    0.77       4.5  T
   8    -42.6523860 -0.128517E-06  0.122E-03    0.77      16.4  T
   9    -42.6523860 -0.242734E-07  0.430E-04    0.77      46.5  T
  10    -42.6523860 -0.117056E-08  0.168E-04    0.77     119.3  T
     SCC iter.                  ...        0 min,  0.014 sec
     gradient                   ...        0 min,  0.013 sec
 * total energy  :   -73.0495712 Eh     change       -0.6697834E+01 Eh
   gradient norm :    19.9390845 Eh/α   predicted    -0.3648876E+01 ( -45.52%)
   displ. norm   :     0.3429595 α      lambda       -0.6794311E+01
   maximum displ.:     0.2505442 α      in ANC's #1, #2, #12, ...

........................................................................
.............................. CYCLE   11 ..............................
........................................................................

 iter      E             dE          RMSdq      gap      omega  full diag
   1    -42.6396837 -0.426397E+02  0.559E-01    0.54       0.0  T
   2    -42.6374830  0.220069E-02  0.484E-01    0.69       1.0  T
   3    -42.6436671 -0.618408E-02  0.237E-01    0.61       1.0  T
   4    -42.6437125 -0.453894E-04  0.139E-01    0.60       1.0  T
   5    -42.6443341 -0.621637E-03  0.191E-02    0.62       1.0  T
   6    -42.6443388 -0.468786E-05  0.113E-02    0.62       1.8  T
   7    -42.6443401 -0.132943E-05  0.363E-03    0.62       5.5  T
   8    -42.6443402 -0.906852E-07  0.113E-03    0.62      17.7  T
   9    -42.6443402 -0.169101E-07  0.437E-04    0.62      45.7  T
  10    -42.6443402 -0.754369E-09  0.154E-04    0.62     129.8  T
     SCC iter.                  ...        0 min,  0.014 sec
     gradient                   ...        0 min,  0.013 sec
 * total energy  :   -78.9038335 Eh     change       -0.5854262E+01 Eh
   gradient norm :    11.4027948 Eh/α   predicted    -0.3796731E+01 ( -35.15%)
   displ. norm   :     0.3889953 α      lambda       -0.4404960E+01
   maximum displ.:     0.2830202 α      in ANC's #2, #1, #12, ...

........................................................................
.............................. CYCLE   12 ..............................
........................................................................

 iter      E             dE          RMSdq      gap      omega  full diag
   1    -42.5863191 -0.425863E+02  0.534E-01    0.50       0.0  T
   2    -42.5792012  0.711785E-02  0.600E-01    0.60       1.0  T
   3    -42.5902716 -0.110703E-01  0.244E-01    0.53       1.0  T
   4    -42.5905152 -0.243640E-03  0.101E-01    0.52       1.0  T
   5    -42.5908228 -0.307598E-03  0.319E-02    0.54       1.0  T
   6    -42.5908535 -0.306701E-04  0.143E-02    0.53       1.4  T
   7    -42.5908552 -0.168993E-05  0.658E-03    0.53       3.0  T
   8    -42.5908554 -0.254517E-06  0.190E-03    0.53      10.5  T
   9    -42.5908555 -0.756050E-07  0.703E-04    0.53      28.5  T
  10    -42.5908555 -0.182292E-08  0.253E-04    0.53      78.9  T
     SCC iter.                  ...        0 min,  0.014 sec
     gradient                   ...        0 min,  0.013 sec
 * total energy  :   -59.2533092 Eh     change        0.1965052E+02 Eh
   gradient norm :   361.8650270 Eh/α   predicted    -0.2535754E+01 (-112.90%)
   displ. norm   :     0.3319246 α      lambda       -0.1201111E+03
   maximum displ.:     0.2439374 α      in ANC's #2, #1, #12, ...

........................................................................
.............................. CYCLE   13 ..............................
........................................................................

 iter      E             dE          RMSdq      gap      omega  full diag
   1    -42.6394304 -0.426394E+02  0.498E-01    0.60       0.0  T
   2    -42.6373790  0.205138E-02  0.440E-01    0.54       1.0  T
   3    -42.6426652 -0.528619E-02  0.215E-01    0.58       1.0  T
   4    -42.6430974 -0.432232E-03  0.835E-02    0.59       1.0  T
   5    -42.6432536 -0.156200E-03  0.314E-02    0.57       1.0  T
   6    -42.6432849 -0.312355E-04  0.122E-02    0.58       1.6  T
   7    -42.6432861 -0.128120E-05  0.625E-03    0.58       3.2  T
   8    -42.6432864 -0.288350E-06  0.108E-03    0.58      18.5  T
   9    -42.6432864 -0.101845E-07  0.548E-04    0.58      36.5  T
  10    -42.6432864 -0.102894E-08  0.151E-04    0.58     132.5  T
     SCC iter.                  ...        0 min,  0.014 sec
     gradient                   ...        0 min,  0.013 sec
 * total energy  :   -79.4201840 Eh     change       -0.2016687E+02 Eh
   gradient norm :     7.2812298 Eh/α   predicted    -0.6667214E+02 ( 230.60%)
   displ. norm   :     0.0747285 α      lambda       -0.6680996E-01
   maximum displ.:     0.0399605 α      in ANC's #24, #12, #2, ...

........................................................................
.............................. CYCLE   14 ..............................
........................................................................

 iter      E             dE          RMSdq      gap      omega  full diag
   1    -42.6327585 -0.426328E+02  0.263E-01    0.52       0.0  T
   2    -42.6302553  0.250321E-02  0.413E-01    0.56       1.0  T
   3    -42.6354723 -0.521701E-02  0.831E-02    0.54       1.0  T
   4    -42.6354682  0.412223E-05  0.587E-02    0.53       1.0  T
   5    -42.6355072 -0.390430E-04  0.114E-02    0.54       1.8  T
   6    -42.6355095 -0.229966E-05  0.403E-03    0.54       5.0  T
   7    -42.6355099 -0.377138E-06  0.189E-03    0.54      10.6  T
   8    -42.6355100 -0.480941E-07  0.841E-04    0.54      23.8  T
   9    -42.6355100 -0.134049E-07  0.146E-04    0.54     137.1  T
     SCC iter.                  ...        0 min,  0.012 sec
     gradient                   ...        0 min,  0.013 sec
 * total energy  :   -79.4818883 Eh     change       -0.6170424E-01 Eh
   gradient norm :     6.6315780 Eh/α   predicted    -0.3359937E-01 ( -45.55%)
   displ. norm   :     0.3536508 α      lambda       -0.3808522E+00
   maximum displ.:     0.1675700 α      in ANC's #24, #23, #2, ...

........................................................................
.............................. CYCLE   15 ..............................
........................................................................

 iter      E             dE          RMSdq      gap      omega  full diag
   1    -42.5804954 -0.425805E+02  0.804E-01    0.30       0.0  T
   2    -42.5600500  0.204454E-01  0.124E+00    0.42       1.0  T
   3    -42.6049005 -0.448505E-01  0.379E-01    0.31       1.0  T
   4    -42.6045352  0.365297E-03  0.263E-01    0.31       1.0  T
   5    -42.6053260 -0.790859E-03  0.885E-02    0.31       1.0  T
   6    -42.6055720 -0.245966E-03  0.196E-02    0.32       1.0  T
   7    -42.6055786 -0.653805E-05  0.120E-02    0.32       1.7  T
   8    -42.6055797 -0.116480E-05  0.437E-03    0.31       4.6  T
   9    -42.6055801 -0.338720E-06  0.108E-03    0.32      18.6  T
  10    -42.6055801 -0.870768E-08  0.512E-04    0.32      39.1  T
  11    -42.6055801 -0.144838E-08  0.246E-04    0.32      81.3  T
     SCC iter.                  ...        0 min,  0.015 sec
     gradient                   ...        0 min,  0.013 sec
 * total energy  :   -79.7079372 Eh     change       -0.2260489E+00 Eh
   gradient norm :     1.3411805 Eh/α   predicted    -0.2143264E+00 (  -5.19%)
   displ. norm   :     0.0744426 α      lambda       -0.1815238E-01
   maximum displ.:     0.0298502 α      in ANC's #23, #2, #24, ...

........................................................................
.............................. CYCLE   16 ..............................
........................................................................

 iter      E             dE          RMSdq      gap      omega  full diag
   1    -42.6019367 -0.426019E+02  0.124E-01    0.27       0.0  T
   2    -42.6014077  0.529002E-03  0.187E-01    0.27       1.0  T
   3    -42.6024239 -0.101612E-02  0.575E-02    0.27       1.0  T
   4    -42.6024126  0.112514E-04  0.345E-02    0.27       1.0  T
   5    -42.6024340 -0.214121E-04  0.104E-02    0.27       1.9  T
   6    -42.6024373 -0.329248E-05  0.274E-03    0.27       7.3  T
   7    -42.6024374 -0.542659E-07  0.126E-03    0.27      15.8  T
   8    -42.6024374 -0.366145E-07  0.423E-04    0.27      47.3  T
   9    -42.6024374 -0.260911E-08  0.139E-04    0.27     144.2  T
     SCC iter.                  ...        0 min,  0.013 sec
     gradient                   ...        0 min,  0.013 sec
 * total energy  :   -79.7182499 Eh     change       -0.1031273E-01 Eh
   gradient norm :     0.1683402 Eh/α   predicted    -0.9126306E-02 ( -11.50%)
   displ. norm   :     0.0396939 α      lambda       -0.4820230E-02
   maximum displ.:     0.0245764 α      in ANC's #27, #28, #23, ...

........................................................................
.............................. CYCLE   17 ..............................
........................................................................

 iter      E             dE          RMSdq      gap      omega  full diag
   1    -42.6068995 -0.426069E+02  0.608E-02    0.27       0.0  T
   2    -42.6069058 -0.632654E-05  0.469E-02    0.26       1.0  T
   3    -42.6069127 -0.693609E-05  0.303E-02    0.26       1.0  T
   4    -42.6069220 -0.926530E-05  0.203E-02    0.26       1.0  T
   5    -42.6069312 -0.918269E-05  0.326E-03    0.26       6.1  T
   6    -42.6069313 -0.170530E-06  0.139E-03    0.26      14.4  T
   7    -42.6069314 -0.290167E-07  0.930E-04    0.26      21.5  T
   8    -42.6069314 -0.173310E-07  0.226E-04    0.26      88.3  T
     SCC iter.                  ...        0 min,  0.011 sec
     gradient                   ...        0 min,  0.013 sec
 * total energy  :   -79.7226694 Eh     change       -0.4419541E-02 Eh
   gradient norm :     0.3602785 Eh/α   predicted    -0.2415161E-02 ( -45.35%)
   displ. norm   :     0.2571922 α      lambda       -0.2948454E-01
   maximum displ.:     0.1627652 α      in ANC's #27, #28, #7, ...

........................................................................
.............................. CYCLE   18 ..............................
........................................................................

 iter      E             dE          RMSdq      gap      omega  full diag
   1    -42.6305168 -0.426305E+02  0.427E-01    0.26       0.0  T
   2    -42.6307882 -0.271395E-03  0.338E-01    0.21       1.0  T
   3    -42.6314800 -0.691889E-03  0.209E-01    0.22       1.0  T
   4    -42.6318580 -0.377984E-03  0.143E-01    0.24       1.0  T
   5    -42.6322935 -0.435484E-03  0.226E-02    0.22       1.0  T
   6    -42.6323037 -0.102382E-04  0.969E-03    0.23       2.1  T
   7    -42.6323055 -0.178347E-05  0.504E-03    0.23       4.0  T
   8    -42.6323058 -0.298212E-06  0.174E-03    0.23      11.5  T
   9    -42.6323059 -0.372964E-07  0.663E-04    0.23      30.2  T
  10    -42.6323059 -0.626213E-08  0.278E-04    0.23      71.9  T
     SCC iter.                  ...        0 min,  0.014 sec
     gradient                   ...        0 min,  0.013 sec
 * total energy  :   -79.7409616 Eh     change       -0.1829215E-01 Eh
   gradient norm :     0.9078792 Eh/α   predicted    -0.1573432E-01 ( -13.98%)
   displ. norm   :     0.1108138 α      lambda       -0.7123500E-02
   maximum displ.:     0.0709527 α      in ANC's #27, #7, #28, ...

........................................................................
.............................. CYCLE   19 ..............................
........................................................................

 iter      E             dE          RMSdq      gap      omega  full diag
   1    -42.6384718 -0.426385E+02  0.190E-01    0.22       0.0  T
   2    -42.6385615 -0.897033E-04  0.113E-01    0.21       1.0  T
   3    -42.6385135  0.479621E-04  0.945E-02    0.21       1.0  T
   4    -42.6385817 -0.681743E-04  0.470E-02    0.21       1.0  T
   5    -42.6386637 -0.819811E-04  0.942E-03    0.21       2.1  T
   6    -42.6386663 -0.262646E-05  0.398E-03    0.21       5.0  T
   7    -42.6386664 -0.148204E-06  0.203E-03    0.21       9.8  T
   8    -42.6386665 -0.103243E-06  0.738E-04    0.21      27.1  T
   9    -42.6386666 -0.373596E-08  0.270E-04    0.21      74.1  T
     SCC iter.                  ...        0 min,  0.012 sec
     gradient                   ...        0 min,  0.013 sec
 * total energy  :   -79.7465367 Eh     change       -0.5575085E-02 Eh
   gradient norm :     0.8124163 Eh/α   predicted    -0.3605661E-02 ( -35.33%)
   displ. norm   :     0.1753875 α      lambda       -0.1145525E-01
   maximum displ.:     0.1081743 α      in ANC's #27, #7, #28, ...

........................................................................
.............................. CYCLE   20 ..............................
........................................................................

 iter      E             dE          RMSdq      gap      omega  full diag
   1    -42.6422302 -0.426422E+02  0.320E-01    0.17       0.0  T
   2    -42.6408402  0.139003E-02  0.291E-01    0.15       1.0  T
   3    -42.6430031 -0.216291E-02  0.158E-01    0.17       1.0  T
   4    -42.6434190 -0.415847E-03  0.498E-02    0.16       1.0  T
   5    -42.6434537 -0.347691E-04  0.184E-02    0.17       1.1  T
   6    -42.6434652 -0.114424E-04  0.600E-03    0.16       3.3  T
   7    -42.6434654 -0.215260E-06  0.303E-03    0.16       6.6  T
   8    -42.6434656 -0.161391E-06  0.920E-04    0.16      21.7  T
   9    -42.6434656 -0.516181E-08  0.376E-04    0.16      53.2  T
     SCC iter.                  ...        0 min,  0.012 sec
     gradient                   ...        0 min,  0.013 sec
 * total energy  :   -79.7548448 Eh     change       -0.8308111E-02 Eh
   gradient norm :     0.5364291 Eh/α   predicted    -0.5902260E-02 ( -28.96%)
   displ. norm   :     0.1905210 α      lambda       -0.1132485E-01
   maximum displ.:     0.1106143 α      in ANC's #27, #23, #47, ...
 * RMSD in coord.:     0.6224115 α      energy gain  -0.3485874E+02 Eh

generating ANC from model Hessian ...
Using Lindh-Hessian (1995)
 Shifting diagonal of input Hessian by    3.5531325485508489     
 Lowest  eigenvalues of input Hessian
    0.010000    0.000000    0.000000    0.000000    0.000000    0.000000
    0.000000    3.554776    3.557349    3.558059    3.558321    3.559626
    3.561756    3.564515    3.565960    3.567681    3.575477    3.577435
 Highest eigenvalues
    5.765198    5.872050    6.049348    6.182190   77.467164   92.500521


........................................................................
.............................. CYCLE   21 ..............................
........................................................................

 iter      E             dE          RMSdq      gap      omega  full diag
   1    -42.6429364 -0.426429E+02  0.322E-01    0.10       0.0  T
   2    -42.6401299  0.280643E-02  0.375E-01    0.08       1.0  T
   3    -42.6446111 -0.448116E-02  0.122E-01    0.11       1.0  T
   4    -42.6447591 -0.147963E-03  0.471E-02    0.09       1.0  T
   5    -42.6447742 -0.151190E-04  0.161E-02    0.10       1.2  T
   6    -42.6447818 -0.762345E-05  0.666E-03    0.10       3.0  T
   7    -42.6447824 -0.612432E-06  0.227E-03    0.10       8.8  T
   8    -42.6447825 -0.392108E-07  0.815E-04    0.10      24.5  T
   9    -42.6447825 -0.196123E-08  0.367E-04    0.10      54.4  T
     SCC iter.                  ...        0 min,  0.012 sec
     gradient                   ...        0 min,  0.013 sec
 * total energy  :   -79.7637603 Eh     change       -0.8915546E-02 Eh
   gradient norm :     0.2932208 Eh/α   predicted     0.0000000E+00 (-100.00%)
   displ. norm   :     0.9712057 α      lambda       -0.2467946E+00
   maximum displ.:     0.9706963 α      in ANC's #1, #68, #48, ...

........................................................................
.............................. CYCLE   22 ..............................
........................................................................

 iter      E             dE          RMSdq      gap      omega  full diag
   1    -42.6439622 -0.426440E+02  0.123E+00    0.40       0.0  T
   2    -42.6390091  0.495316E-02  0.990E-01    0.34       1.0  T
   3    -42.6643776 -0.253685E-01  0.513E-01    0.29       1.0  T
   4    -42.6660874 -0.170986E-02  0.265E-01    0.37       1.0  T
   5    -42.6680191 -0.193168E-02  0.668E-02    0.31       1.0  T
   6    -42.6680590 -0.398808E-04  0.391E-02    0.31       1.0  T
   7    -42.6680792 -0.201997E-04  0.135E-02    0.31       1.5  T
   8    -42.6680808 -0.156376E-05  0.557E-03    0.31       3.6  T
   9    -42.6680810 -0.295067E-06  0.155E-03    0.31      12.9  T
  10    -42.6680811 -0.401810E-07  0.618E-04    0.31      32.4  T
  11    -42.6680811 -0.429612E-08  0.241E-04    0.31      83.0  T
     SCC iter.                  ...        0 min,  0.015 sec
     gradient                   ...        0 min,  0.013 sec
 * total energy  :   -63.1535318 Eh     change        0.1661023E+02 Eh
   gradient norm :    18.3515268 Eh/α   predicted    -0.2397921E+00 (-101.44%)
   displ. norm   :     0.6044159 α      lambda       -0.1108771E+02
   maximum displ.:     0.6027957 α      in ANC's #1, #48, #50, ...

........................................................................
.............................. CYCLE   23 ..............................
........................................................................

 iter      E             dE          RMSdq      gap      omega  full diag
   1    -42.6680699 -0.426681E+02  0.927E-01    0.08       0.0  T
   2    -42.6545841  0.134858E-01  0.931E-01    0.10       1.0  T
   3    -42.6824881 -0.279040E-01  0.372E-01    0.11       1.0  T
   4    -42.6825163 -0.281715E-04  0.218E-01    0.05       1.0  T
   5    -42.6839809 -0.146464E-02  0.420E-02    0.09       1.0  T
   6    -42.6840170 -0.360828E-04  0.211E-02    0.09       1.0  T
   7    -42.6840204 -0.335086E-05  0.927E-03    0.09       2.2  T
   8    -42.6840212 -0.822540E-06  0.321E-03    0.09       6.2  T
   9    -42.6840215 -0.255542E-06  0.887E-04    0.09      22.5  T
  10    -42.6840215 -0.545614E-08  0.298E-04    0.09      67.2  T
     SCC iter.                  ...        0 min,  0.014 sec
     gradient                   ...        0 min,  0.013 sec
 * total energy  :   -74.9994832 Eh     change       -0.1184595E+02 Eh
   gradient norm :    19.1964834 Eh/α   predicted    -0.7569128E+01 ( -36.10%)
   displ. norm   :     0.6173788 α      lambda       -0.1184430E+02
   maximum displ.:     0.6159867 α      in ANC's #1, #48, #50, ...

........................................................................
.............................. CYCLE   24 ..............................
........................................................................

 iter      E             dE          RMSdq      gap      omega  full diag
   1    -42.5896666 -0.425897E+02  0.797E-01    0.10       0.0  T
   2    -42.5753943  0.142722E-01  0.744E-01    0.07       1.0  T
   3    -42.5893634 -0.139691E-01  0.558E-01    0.14       1.0  T
   4    -42.5951163 -0.575286E-02  0.144E-01    0.06       1.0  T
   5    -42.5957000 -0.583722E-03  0.480E-02    0.08       1.0  T
   6    -42.5957442 -0.441530E-04  0.277E-02    0.08       1.0  T
   7    -42.5957513 -0.707800E-05  0.998E-03    0.08       2.0  T
   8    -42.5957522 -0.938685E-06  0.558E-03    0.08       3.6  T
   9    -42.5957527 -0.457712E-06  0.143E-03    0.08      14.0  T
  10    -42.5957527 -0.322390E-07  0.609E-04    0.08      32.9  T
  11    -42.5957527 -0.274568E-09  0.355E-04    0.08      56.4  T
     SCC iter.                  ...        0 min,  0.015 sec
     gradient                   ...        0 min,  0.013 sec
 * total energy  :   -63.8247690 Eh     change        0.1117471E+02 Eh
   gradient norm :   267.7334358 Eh/α   predicted    -0.8179412E+01 (-173.20%)
   displ. norm   :     0.4554626 α      lambda       -0.1219348E+03
   maximum displ.:     0.4526687 α      in ANC's #1, #60, #48, ...

........................................................................
.............................. CYCLE   25 ..............................
........................................................................

 iter      E             dE          RMSdq      gap      omega  full diag
   1    -42.6699000 -0.426699E+02  0.655E-01    0.11       0.0  T
   2    -42.6654423  0.445764E-02  0.552E-01    0.14       1.0  T
   3    -42.6728764 -0.743410E-02  0.351E-01    0.07       1.0  T
   4    -42.6747767 -0.190028E-02  0.113E-01    0.12       1.0  T
   5    -42.6749815 -0.204759E-03  0.497E-02    0.09       1.0  T
   6    -42.6750465 -0.650366E-04  0.238E-02    0.09       1.0  T
   7    -42.6750509 -0.438386E-05  0.920E-03    0.09       2.2  T
   8    -42.6750514 -0.519290E-06  0.437E-03    0.09       4.6  T
   9    -42.6750517 -0.306543E-06  0.905E-04    0.09      22.1  T
  10    -42.6750517 -0.496679E-08  0.494E-04    0.09      40.5  T
     SCC iter.                  ...        0 min,  0.014 sec
     gradient                   ...        0 min,  0.013 sec
 * total energy  :   -77.8590748 Eh     change       -0.1403431E+02 Eh
   gradient norm :    15.6032196 Eh/α   predicted    -0.7361484E+02 ( 424.53%)
   displ. norm   :     0.0544742 α      lambda       -0.6420287E+00
   maximum displ.:     0.0311363 α      in ANC's #60, #1, #68, ...

........................................................................
.............................. CYCLE   26 ..............................
........................................................................

 iter      E             dE          RMSdq      gap      omega  full diag
   1    -42.6700143 -0.426700E+02  0.138E-01    0.04       0.0  T
   2    -42.6697371  0.277161E-03  0.160E-01    0.05       1.0  T
   3    -42.6705045 -0.767394E-03  0.476E-02    0.06       1.0  T
   4    -42.6705043  0.181081E-06  0.387E-02    0.05       1.0  T
   5    -42.6705229 -0.185753E-04  0.609E-03    0.06       3.3  T
   6    -42.6705241 -0.124037E-05  0.265E-03    0.06       7.5  T
   7    -42.6705242 -0.400918E-07  0.128E-03    0.06      15.7  T
   8    -42.6705242 -0.117276E-07  0.389E-04    0.06      51.4  T
   9    -42.6705242 -0.280355E-08  0.141E-04    0.06     141.9  T
     SCC iter.                  ...        0 min,  0.013 sec
     gradient                   ...        0 min,  0.013 sec
 * total energy  :   -78.2318241 Eh     change       -0.3727493E+00 Eh
   gradient norm :    14.6286103 Eh/α   predicted    -0.2011223E+00 ( -46.04%)
   displ. norm   :     0.3945502 α      lambda       -0.1371529E+02
   maximum displ.:     0.3541090 α      in ANC's #1, #60, #48, ...

........................................................................
.............................. CYCLE   27 ..............................
........................................................................

 iter      E             dE          RMSdq      gap      omega  full diag
   1    -42.6143576 -0.426144E+02  0.465E-01    0.05       0.0  T
   2    -42.6147957 -0.438141E-03  0.293E-01    0.08       1.0  T
   3    -42.6144504  0.345386E-03  0.159E-01    0.06       1.0  T
   4    -42.6144181  0.322987E-04  0.124E-01    0.06       1.0  T
   5    -42.6150217 -0.603601E-03  0.257E-02    0.06       1.0  T
   6    -42.6150297 -0.801603E-05  0.108E-02    0.06       1.8  T
   7    -42.6150307 -0.992680E-06  0.434E-03    0.06       4.6  T
   8    -42.6150308 -0.125805E-06  0.238E-03    0.06       8.4  T
   9    -42.6150309 -0.640579E-07  0.778E-04    0.06      25.7  T
  10    -42.6150309 -0.161558E-07  0.310E-04    0.06      64.4  T
     SCC iter.                  ...        0 min,  0.014 sec
     gradient                   ...        0 min,  0.013 sec
 * total energy  :   -76.8957269 Eh     change        0.1336097E+01 Eh
   gradient norm :    51.1855779 Eh/α   predicted    -0.3632754E+01 (-371.89%)
   displ. norm   :     0.2720271 α      lambda       -0.2529112E+02
   maximum displ.:     0.2474992 α      in ANC's #60, #1, #68, ...

........................................................................
.............................. CYCLE   28 ..............................
........................................................................

 iter      E             dE          RMSdq      gap      omega  full diag
   1    -42.6276307 -0.426276E+02  0.821E-01    0.29       0.0  T
   2    -42.6131940  0.144367E-01  0.867E-01    0.18       1.0  T
   3    -42.6424474 -0.292535E-01  0.281E-01    0.14       1.0  T
   4    -42.6437472 -0.129976E-02  0.132E-01    0.17       1.0  T
   5    -42.6438502 -0.103062E-03  0.484E-02    0.15       1.0  T
   6    -42.6439172 -0.669645E-04  0.199E-02    0.16       1.0  T
   7    -42.6439217 -0.452295E-05  0.686E-03    0.15       2.9  T
   8    -42.6439220 -0.228823E-06  0.370E-03    0.15       5.4  T
   9    -42.6439220 -0.684071E-07  0.116E-03    0.15      17.2  T
  10    -42.6439220 -0.146684E-07  0.403E-04    0.15      49.6  T
  11    -42.6439220 -0.583675E-09  0.223E-04    0.15      89.9  T
     SCC iter.                  ...        0 min,  0.015 sec
     gradient                   ...        0 min,  0.013 sec
 * total energy  :   -79.3893131 Eh     change       -0.2493586E+01 Eh
   gradient norm :     8.6552057 Eh/α   predicted    -0.5832977E+01 ( 133.92%)
   displ. norm   :     0.2076921 α      lambda       -0.2361923E+01
   maximum displ.:     0.1844820 α      in ANC's #60, #1, #68, ...

........................................................................
.............................. CYCLE   29 ..............................
........................................................................

 iter      E             dE          RMSdq      gap      omega  full diag
   1    -42.6423797 -0.426424E+02  0.567E-01    0.05       0.0  T
   2    -42.6351079  0.727182E-02  0.611E-01    0.11       1.0  T
   3    -42.6491289 -0.140210E-01  0.191E-01    0.08       1.0  T
   4    -42.6495807 -0.451778E-03  0.825E-02    0.06       1.0  T
   5    -42.6496379 -0.572116E-04  0.251E-02    0.08       1.0  T
   6    -42.6496588 -0.208932E-04  0.844E-03    0.08       2.4  T
   7    -42.6496594 -0.575604E-06  0.346E-03    0.08       5.8  T
   8    -42.6496594 -0.277970E-07  0.907E-04    0.08      22.0  T
   9    -42.6496594 -0.101173E-07  0.372E-04    0.08      53.8  T
     SCC iter.                  ...        0 min,  0.012 sec
     gradient                   ...        0 min,  0.013 sec
 * total energy  :   -79.7441220 Eh     change       -0.3548089E+00 Eh
   gradient norm :     2.7849709 Eh/α   predicted    -0.5258176E+00 (  48.20%)
   displ. norm   :     0.0233114 α      lambda       -0.9872480E-01
   maximum displ.:     0.0112147 α      in ANC's #1, #68, #31, ...

........................................................................
.............................. CYCLE   30 ..............................
........................................................................

 iter      E             dE          RMSdq      gap      omega  full diag
   1    -42.6471060 -0.426471E+02  0.530E-02    0.07       0.0  T
   2    -42.6470487  0.572431E-04  0.553E-02    0.08       1.0  T
   3    -42.6471580 -0.109244E-03  0.198E-02    0.08       1.0  T
   4    -42.6471633 -0.539206E-05  0.824E-03    0.07       2.4  T
   5    -42.6471640 -0.647758E-06  0.304E-03    0.08       6.6  T
   6    -42.6471643 -0.299902E-06  0.101E-03    0.07      19.8  T
   7    -42.6471643 -0.154340E-07  0.332E-04    0.07      60.2  T
   8    -42.6471643 -0.398153E-09  0.177E-04    0.07     113.2  T
     SCC iter.                  ...        0 min,  0.011 sec
     gradient                   ...        0 min,  0.013 sec
 * total energy  :   -79.7681195 Eh     change       -0.2399747E-01 Eh
   gradient norm :     1.2941301 Eh/α   predicted    -0.1625487E-01 ( -32.26%)
   displ. norm   :     0.0362769 α      lambda       -0.6349213E-01
   maximum displ.:     0.0185912 α      in ANC's #68, #31, #32, ...

........................................................................
.............................. CYCLE   31 ..............................
........................................................................

 iter      E             dE          RMSdq      gap      omega  full diag
   1    -42.6452704 -0.426453E+02  0.878E-02    0.07       0.0  T
   2    -42.6451219  0.148475E-03  0.871E-02    0.07       1.0  T
   3    -42.6453863 -0.264348E-03  0.365E-02    0.07       1.0  T
   4    -42.6454089 -0.226518E-04  0.136E-02    0.07       1.5  T
   5    -42.6454104 -0.143455E-05  0.508E-03    0.07       3.9  T
   6    -42.6454112 -0.885046E-06  0.140E-03    0.07      14.3  T
   7    -42.6454113 -0.272989E-07  0.548E-04    0.07      36.5  T
   8    -42.6454113 -0.199525E-08  0.234E-04    0.07      85.6  T
     SCC iter.                  ...        0 min,  0.011 sec
     gradient                   ...        0 min,  0.013 sec
 * total energy  :   -79.7762263 Eh     change       -0.8106854E-02 Eh
   gradient norm :     0.2098247 Eh/α   predicted    -0.7878638E-02 (  -2.82%)
   displ. norm   :     0.0187138 α      lambda       -0.7270051E-02
   maximum displ.:     0.0082936 α      in ANC's #31, #68, #32, ...

........................................................................
.............................. CYCLE   32 ..............................
........................................................................

 iter      E             dE          RMSdq      gap      omega  full diag
   1    -42.6461422 -0.426461E+02  0.357E-02    0.07       0.0  T
   2    -42.6461244  0.178066E-04  0.311E-02    0.07       1.0  T
   3    -42.6461530 -0.286091E-04  0.179E-02    0.07       1.1  T
   4    -42.6461587 -0.571874E-05  0.532E-03    0.07       3.8  T
   5    -42.6461590 -0.283060E-06  0.194E-03    0.07      10.3  T
   6    -42.6461591 -0.131445E-06  0.544E-04    0.07      36.7  T
   7    -42.6461591 -0.275453E-08  0.255E-04    0.07      78.3  T
     SCC iter.                  ...        0 min,  0.010 sec
     gradient                   ...        0 min,  0.013 sec
 * total energy  :   -79.7776333 Eh     change       -0.1406978E-02 Eh
   gradient norm :     0.2058859 Eh/α   predicted    -0.7235218E-03 ( -48.58%)
   displ. norm   :     0.2356760 α      lambda       -0.1091888E+00
   maximum displ.:     0.1088767 α      in ANC's #31, #32, #21, ...

........................................................................
.............................. CYCLE   33 ..............................
........................................................................

 iter      E             dE          RMSdq      gap      omega  full diag
   1    -42.6533400 -0.426533E+02  0.412E-01    0.06       0.0  T
   2    -42.6507256  0.261439E-02  0.371E-01    0.03       1.0  T
   3    -42.6544975 -0.377192E-02  0.217E-01    0.06       1.0  T
   4    -42.6553396 -0.842122E-03  0.592E-02    0.04       1.0  T
   5    -42.6553750 -0.354222E-04  0.174E-02    0.05       1.2  T
   6    -42.6553840 -0.894673E-05  0.721E-03    0.05       2.8  T
   7    -42.6553845 -0.554435E-06  0.364E-03    0.05       5.5  T
   8    -42.6553847 -0.201168E-06  0.834E-04    0.05      24.0  T
   9    -42.6553848 -0.113941E-07  0.323E-04    0.05      61.9  T
     SCC iter.                  ...        0 min,  0.013 sec
     gradient                   ...        0 min,  0.013 sec
 * total energy  :   -79.7838668 Eh     change       -0.6233475E-02 Eh
   gradient norm :     1.1488453 Eh/α   predicted    -0.1171914E-01 (  88.00%)
   displ. norm   :     0.0256645 α      lambda       -0.4697441E-01
   maximum displ.:     0.0145740 α      in ANC's #68, #1, #60, ...

........................................................................
.............................. CYCLE   34 ..............................
........................................................................

 iter      E             dE          RMSdq      gap      omega  full diag
   1    -42.6541215 -0.426541E+02  0.568E-02    0.04       0.0  T
   2    -42.6540956  0.259160E-04  0.468E-02    0.05       1.0  T
   3    -42.6541441 -0.484965E-04  0.295E-02    0.04       1.0  T
   4    -42.6541591 -0.149695E-04  0.984E-03    0.05       2.0  T
   5    -42.6541601 -0.104250E-05  0.377E-03    0.04       5.3  T
   6    -42.6541606 -0.460880E-06  0.104E-03    0.05      19.3  T
   7    -42.6541606 -0.126829E-07  0.562E-04    0.05      35.6  T
   8    -42.6541606 -0.459762E-08  0.121E-04    0.05     165.0  T
     SCC iter.                  ...        0 min,  0.011 sec
     gradient                   ...        0 min,  0.013 sec
 * total energy  :   -79.7890310 Eh     change       -0.5164202E-02 Eh
   gradient norm :     0.0840712 Eh/α   predicted    -0.5120287E-02 (  -0.85%)
   displ. norm   :     0.0830987 α      lambda       -0.2018753E-01
   maximum displ.:     0.0423148 α      in ANC's #31, #32, #21, ...

........................................................................
.............................. CYCLE   35 ..............................
........................................................................

 iter      E             dE          RMSdq      gap      omega  full diag
   1    -42.6562575 -0.426563E+02  0.930E-02    0.03       0.0  T
   2    -42.6561746  0.828768E-04  0.736E-02    0.03       1.0  T
   3    -42.6562525 -0.779115E-04  0.568E-02    0.04       1.0  T
   4    -42.6563204 -0.678734E-04  0.117E-02    0.03       1.7  T
   5    -42.6563223 -0.188915E-05  0.254E-03    0.03       7.9  T
   6    -42.6563224 -0.855668E-07  0.114E-03    0.03      17.6  T
   7    -42.6563224 -0.340078E-08  0.416E-04    0.03      48.1  T
   8    -42.6563224 -0.307576E-08  0.125E-04    0.03     160.0  T
     SCC iter.                  ...        0 min,  0.011 sec
     gradient                   ...        0 min,  0.013 sec
 * total energy  :   -79.7923135 Eh     change       -0.3282510E-02 Eh
   gradient norm :     0.1229685 Eh/α   predicted    -0.1886942E-02 ( -42.52%)
   displ. norm   :     0.2645879 α      lambda       -0.7625201E-01
   maximum displ.:     0.1333119 α      in ANC's #31, #32, #21, ...

........................................................................
.............................. CYCLE   36 ..............................
........................................................................

 iter      E             dE          RMSdq      gap      omega  full diag
   1    -42.6605352 -0.426605E+02  0.272E-01    0.02       0.0  T
   2    -42.6601500  0.385268E-03  0.196E-01    0.03       1.0  T
   3    -42.6602498 -0.998413E-04  0.170E-01    0.02       1.0  T
   4    -42.6609370 -0.687154E-03  0.438E-02    0.03       1.0  T
   5    -42.6609647 -0.277386E-04  0.101E-02    0.02       2.0  T
   6    -42.6609663 -0.158615E-05  0.451E-03    0.02       4.4  T
   7    -42.6609664 -0.137436E-06  0.267E-03    0.02       7.5  T
   8    -42.6609666 -0.157918E-06  0.677E-04    0.02      29.5  T
   9    -42.6609666 -0.797564E-08  0.259E-04    0.02      77.3  T
     SCC iter.                  ...        0 min,  0.013 sec
     gradient                   ...        0 min,  0.013 sec
 * total energy  :   -79.7991397 Eh     change       -0.6826237E-02 Eh
   gradient norm :     0.5190779 Eh/α   predicted    -0.7435810E-02 (   8.93%)
   displ. norm   :     0.1335006 α      lambda       -0.2781738E-01
   maximum displ.:     0.0635344 α      in ANC's #31, #32, #21, ...

........................................................................
.............................. CYCLE   37 ..............................
........................................................................

 iter      E             dE          RMSdq      gap      omega  full diag
   1    -42.6612780 -0.426613E+02  0.131E-01    0.04       0.0  T
   2    -42.6613132 -0.352145E-04  0.819E-02    0.03       1.0  T
   3    -42.6613270 -0.137947E-04  0.536E-02    0.03       1.0  T
   4    -42.6613417 -0.146577E-04  0.319E-02    0.03       1.0  T
   5    -42.6613728 -0.310854E-04  0.868E-03    0.03       2.3  T
   6    -42.6613745 -0.168070E-05  0.267E-03    0.03       7.5  T
   7    -42.6613746 -0.917147E-07  0.155E-03    0.03      12.9  T
   8    -42.6613746 -0.444745E-07  0.331E-04    0.03      60.4  T
   9    -42.6613746 -0.168300E-08  0.136E-04    0.03     147.2  T
     SCC iter.                  ...        0 min,  0.012 sec
     gradient                   ...        0 min,  0.013 sec
 * total energy  :   -79.8024840 Eh     change       -0.3344227E-02 Eh
   gradient norm :     0.1477808 Eh/α   predicted    -0.2397080E-02 ( -28.32%)
   displ. norm   :     0.0783512 α      lambda       -0.8752418E-02
   maximum displ.:     0.0356274 α      in ANC's #31, #21, #32, ...

........................................................................
.............................. CYCLE   38 ..............................
........................................................................

 iter      E             dE          RMSdq      gap      omega  full diag
   1    -42.6610940 -0.426611E+02  0.744E-02    0.04       0.0  T
   2    -42.6610928  0.118497E-05  0.477E-02    0.04       1.0  T
   3    -42.6610832  0.956502E-05  0.374E-02    0.03       1.0  T
   4    -42.6611097 -0.264453E-04  0.170E-02    0.04       1.2  T
   5    -42.6611173 -0.763805E-05  0.417E-03    0.03       4.8  T
   6    -42.6611177 -0.380310E-06  0.137E-03    0.03      14.6  T
   7    -42.6611177 -0.660214E-08  0.730E-04    0.03      27.4  T
   8    -42.6611177 -0.116867E-07  0.133E-04    0.03     149.9  T
     SCC iter.                  ...        0 min,  0.011 sec
     gradient                   ...        0 min,  0.013 sec
 * total energy  :   -79.8033794 Eh     change       -0.8954681E-03 Eh
   gradient norm :     0.0598407 Eh/α   predicted    -0.6493990E-03 ( -27.48%)
   displ. norm   :     0.0651520 α      lambda       -0.5815767E-02
   maximum displ.:     0.0286937 α      in ANC's #21, #31, #32, ...

........................................................................
.............................. CYCLE   39 ..............................
........................................................................

 iter      E             dE          RMSdq      gap      omega  full diag
   1    -42.6606483 -0.426606E+02  0.652E-02    0.04       0.0  T
   2    -42.6606338  0.144961E-04  0.451E-02    0.04       1.0  T
   3    -42.6606345 -0.669688E-06  0.377E-02    0.03       1.0  T
   4    -42.6606667 -0.321915E-04  0.110E-02    0.04       1.8  T
   5    -42.6606691 -0.244112E-05  0.269E-03    0.03       7.4  T
   6    -42.6606693 -0.132610E-06  0.123E-03    0.03      16.2  T
   7    -42.6606693 -0.112994E-07  0.397E-04    0.03      50.4  T
   8    -42.6606693 -0.375449E-08  0.766E-05    0.03     261.2  T
     SCC iter.                  ...        0 min,  0.011 sec
     gradient                   ...        0 min,  0.013 sec
 * total energy  :   -79.8039519 Eh     change       -0.5724578E-03 Eh
   gradient norm :     0.0784537 Eh/α   predicted    -0.3761832E-03 ( -34.29%)
   displ. norm   :     0.0637008 α      lambda       -0.1024573E-01
   maximum displ.:     0.0287659 α      in ANC's #21, #24, #41, ...

........................................................................
.............................. CYCLE   40 ..............................
........................................................................

 iter      E             dE          RMSdq      gap      omega  full diag
   1    -42.6604263 -0.426604E+02  0.819E-02    0.03       0.0  T
   2    -42.6603974  0.288958E-04  0.617E-02    0.03       1.0  T
   3    -42.6604418 -0.444347E-04  0.437E-02    0.03       1.0  T
   4    -42.6604746 -0.328278E-04  0.147E-02    0.03       1.4  T
   5    -42.6604795 -0.483235E-05  0.424E-03    0.03       4.7  T
   6    -42.6604798 -0.344634E-06  0.193E-03    0.03      10.4  T
   7    -42.6604798 -0.371912E-07  0.817E-04    0.03      24.5  T
   8    -42.6604799 -0.135333E-07  0.209E-04    0.03      95.8  T
     SCC iter.                  ...        0 min,  0.011 sec
     gradient                   ...        0 min,  0.013 sec
 * total energy  :   -79.8046798 Eh     change       -0.7278809E-03 Eh
   gradient norm :     0.2686868 Eh/α   predicted    -0.5906647E-03 ( -18.85%)
   displ. norm   :     0.0655794 α      lambda       -0.9283696E-02
   maximum displ.:     0.0306391 α      in ANC's #21, #24, #13, ...

........................................................................
.............................. CYCLE   41 ..............................
........................................................................

 iter      E             dE          RMSdq      gap      omega  full diag
   1    -42.6600627 -0.426601E+02  0.873E-02    0.03       0.0  T
   2    -42.6600073  0.553680E-04  0.693E-02    0.03       1.0  T
   3    -42.6600951 -0.877617E-04  0.460E-02    0.02       1.0  T
   4    -42.6601313 -0.362186E-04  0.138E-02    0.03       1.5  T
   5    -42.6601351 -0.373619E-05  0.419E-03    0.03       4.8  T
   6    -42.6601354 -0.363112E-06  0.170E-03    0.03      11.8  T
   7    -42.6601354 -0.207222E-07  0.865E-04    0.03      23.1  T
   8    -42.6601355 -0.159035E-07  0.219E-04    0.03      91.3  T
     SCC iter.                  ...        0 min,  0.011 sec
     gradient                   ...        0 min,  0.013 sec
 * total energy  :   -79.8051742 Eh     change       -0.4944044E-03 Eh
   gradient norm :     0.0558332 Eh/α   predicted    -0.4807473E-03 (  -2.76%)
   displ. norm   :     0.0386981 α      lambda       -0.5692429E-02
   maximum displ.:     0.0218311 α      in ANC's #31, #32, #35, ...

........................................................................
.............................. CYCLE   42 ..............................
........................................................................

 iter      E             dE          RMSdq      gap      omega  full diag
   1    -42.6617083 -0.426617E+02  0.456E-02    0.02       0.0  T
   2    -42.6617114 -0.309504E-05  0.318E-02    0.02       1.0  T
   3    -42.6617171 -0.570880E-05  0.227E-02    0.02       1.0  T
   4    -42.6617192 -0.218116E-05  0.108E-02    0.02       1.8  T
   5    -42.6617235 -0.424352E-05  0.390E-03    0.02       5.1  T
   6    -42.6617240 -0.474521E-06  0.103E-03    0.02      19.5  T
   7    -42.6617240 -0.902167E-08  0.635E-04    0.02      31.5  T
   8    -42.6617240 -0.624286E-08  0.147E-04    0.02     135.7  T
     SCC iter.                  ...        0 min,  0.011 sec
     gradient                   ...        0 min,  0.013 sec
 * total energy  :   -79.8055737 Eh     change       -0.3995548E-03 Eh
   gradient norm :     0.0982190 Eh/α   predicted    -0.2902346E-03 ( -27.36%)
   displ. norm   :     0.0443169 α      lambda       -0.5564476E-02
   maximum displ.:     0.0262044 α      in ANC's #31, #32, #35, ...
 * RMSD in coord.:     0.2094490 α      energy gain  -0.5072894E-01 Eh

generating ANC from model Hessian ...
Using Lindh-Hessian (1995)
 Shifting diagonal of input Hessian by    3.5539623523586172     
 Lowest  eigenvalues of input Hessian
    0.010000    0.000000    0.000000    0.000000    0.000000    0.000000
    0.000000    3.555628    3.558172    3.558801    3.559252    3.560482
    3.562528    3.565842    3.566259    3.568279    3.575504    3.575811
 Highest eigenvalues
    5.754284    5.812870    5.926605    6.069416   76.794822   91.806908


........................................................................
.............................. CYCLE   43 ..............................
........................................................................

 iter      E             dE          RMSdq      gap      omega  full diag
   1    -42.6640019 -0.426640E+02  0.454E-02    0.02       0.0  T
   2    -42.6640059 -0.398486E-05  0.291E-02    0.02       1.0  T
   3    -42.6640070 -0.105251E-05  0.181E-02    0.02       1.1  T
   4    -42.6640092 -0.224576E-05  0.756E-03    0.02       2.6  T
   5    -42.6640109 -0.170229E-05  0.238E-03    0.02       8.4  T
   6    -42.6640111 -0.131772E-06  0.124E-03    0.02      16.2  T
   7    -42.6640111 -0.282622E-07  0.506E-04    0.02      39.5  T
   8    -42.6640111 -0.537157E-08  0.105E-04    0.02     189.6  T
     SCC iter.                  ...        0 min,  0.011 sec
     gradient                   ...        0 min,  0.013 sec
 * total energy  :   -79.8059083 Eh     change       -0.3346126E-03 Eh
   gradient norm :     0.0533499 Eh/α   predicted     0.0000000E+00 (-100.00%)
   displ. norm   :     0.8766400 α      lambda       -0.3439827E-01
   maximum displ.:     0.8766057 α      in ANC's #1, #60, #61, ...

........................................................................
.............................. CYCLE   44 ..............................
........................................................................

 iter      E             dE          RMSdq      gap      omega  full diag
   1    -42.7174457 -0.427174E+02  0.101E+00    0.03       0.0  T
   2    -42.7182695 -0.823769E-03  0.639E-01    0.02       1.0  T
   3    -42.7208399 -0.257042E-02  0.489E-01    0.08       1.0  T
   4    -42.7243884 -0.354849E-02  0.179E-01    0.02       1.0  T
   5    -42.7252138 -0.825382E-03  0.558E-02    0.05       1.0  T
   6    -42.7252345 -0.207142E-04  0.298E-02    0.05       1.0  T
   7    -42.7252468 -0.123733E-04  0.842E-03    0.05       2.4  T
   8    -42.7252474 -0.547883E-06  0.296E-03    0.05       6.8  T
   9    -42.7252475 -0.936345E-07  0.682E-04    0.05      29.3  T
  10    -42.7252475 -0.245745E-08  0.317E-04    0.05      63.1  T
     SCC iter.                  ...        0 min,  0.014 sec
     gradient                   ...        0 min,  0.013 sec
 * total energy  :   -64.9432800 Eh     change        0.1486263E+02 Eh
   gradient norm :    18.9532562 Eh/α   predicted    -0.3041675E-01 (-100.20%)
   displ. norm   :     0.5785038 α      lambda       -0.1095942E+02
   maximum displ.:     0.5768266 α      in ANC's #1, #48, #61, ...

........................................................................
.............................. CYCLE   45 ..............................
........................................................................

 iter      E             dE          RMSdq      gap      omega  full diag
   1    -42.7013366 -0.427013E+02  0.799E-01    0.03       0.0  T
   2    -42.6969221  0.441455E-02  0.601E-01    0.06       1.0  T
   3    -42.7033976 -0.647549E-02  0.437E-01    0.02       1.0  T
   4    -42.7063858 -0.298821E-02  0.122E-01    0.08       1.0  T
   5    -42.7068191 -0.433325E-03  0.353E-02    0.05       1.0  T
   6    -42.7068413 -0.221651E-04  0.194E-02    0.05       1.0  T
   7    -42.7068443 -0.301260E-05  0.343E-03    0.05       5.8  T
   8    -42.7068443 -0.711416E-07  0.166E-03    0.05      12.1  T
   9    -42.7068444 -0.108047E-07  0.554E-04    0.05      36.1  T
  10    -42.7068444 -0.614187E-08  0.202E-04    0.05      99.1  T
     SCC iter.                  ...        0 min,  0.014 sec
     gradient                   ...        0 min,  0.013 sec
 * total energy  :   -76.2969036 Eh     change       -0.1135362E+02 Eh
   gradient norm :    18.1334650 Eh/α   predicted    -0.7313590E+01 ( -35.58%)
   displ. norm   :     0.9618989 α      lambda       -0.1743880E+02
   maximum displ.:     0.9583492 α      in ANC's #1, #48, #46, ...

........................................................................
.............................. CYCLE   46 ..............................
........................................................................

 iter      E             dE          RMSdq      gap      omega  full diag
   1    -42.4770140 -0.424770E+02  0.131E+00    0.09       0.0  T
   2    -42.4477546  0.292594E-01  0.113E+00    0.09       1.0  T
   3    -42.4393893  0.836527E-02  0.127E+00    0.23       1.0  T
   4    -42.4831700 -0.437807E-01  0.375E-01    0.02       1.0  T
   5    -42.4857615 -0.259152E-02  0.997E-02    0.05       1.0  T
   6    -42.4858688 -0.107322E-03  0.646E-02    0.05       1.0  T
   7    -42.4859594 -0.905446E-04  0.237E-02    0.05       1.0  T
   8    -42.4859639 -0.448573E-05  0.104E-02    0.05       1.9  T
   9    -42.4859652 -0.138976E-05  0.468E-03    0.05       4.3  T
  10    -42.4859658 -0.554717E-06  0.126E-03    0.05      15.9  T
  11    -42.4859658 -0.692166E-08  0.761E-04    0.05      26.3  T
  12    -42.4859658 -0.895330E-08  0.196E-04    0.05     102.2  T
     SCC iter.                  ...        0 min,  0.016 sec
     gradient                   ...        0 min,  0.013 sec
 * total energy  :   -79.3386872 Eh     change       -0.3041784E+01 Eh
   gradient norm :    11.3421347 Eh/α   predicted    -0.1678792E+02 ( 451.91%)
   displ. norm   :     0.7373539 α      lambda       -0.8354896E+01
   maximum displ.:     0.7337038 α      in ANC's #1, #60, #48, ...

........................................................................
.............................. CYCLE   47 ..............................
........................................................................

 iter      E             dE          RMSdq      gap      omega  full diag
   1    -42.2473694 -0.422474E+02  0.232E+00    0.36       0.0  T
   2    -41.6623402  0.585029E+00  0.423E+00    0.77       1.0  T
   3    -42.2465873 -0.584247E+00  0.179E+00    0.22       1.0  T
   4    -42.3476577 -0.101070E+00  0.685E-01    0.23       1.0  T
   5    -42.3548023 -0.714464E-02  0.187E-01    0.16       1.0  T
   6    -42.3544961  0.306172E-03  0.185E-01    0.17       1.0  T
   7    -42.3551823 -0.686118E-03  0.936E-02    0.17       1.0  T
   8    -42.3554093 -0.227008E-03  0.201E-02    0.16       1.0  T
   9    -42.3554155 -0.624159E-05  0.799E-03    0.16       2.5  T
  10    -42.3554162 -0.739722E-06  0.341E-03    0.16       5.9  T
  11    -42.3554163 -0.680634E-07  0.766E-04    0.16      26.1  T
  12    -42.3554163 -0.690791E-08  0.376E-04    0.16      53.2  T
     SCC iter.                  ...        0 min,  0.017 sec
     gradient                   ...        0 min,  0.013 sec
 * total energy  :   -68.4467841 Eh     change        0.1089190E+02 Eh
   gradient norm :    19.9403104 Eh/α   predicted    -0.6451386E+01 (-159.23%)
   displ. norm   :     0.3963260 α      lambda       -0.7899929E+01
   maximum displ.:     0.3931110 α      in ANC's #1, #60, #48, ...

........................................................................
.............................. CYCLE   48 ..............................
........................................................................

 iter      E             dE          RMSdq      gap      omega  full diag
   1    -42.3714340 -0.423714E+02  0.144E+00    0.14       0.0  T
   2    -42.0590774  0.312357E+00  0.271E+00    0.05       1.0  T
   3    -42.3811922 -0.322115E+00  0.981E-01    0.06       1.0  T
   4    -42.4087051 -0.275129E-01  0.454E-01    0.01       1.0  T
   5    -42.4121795 -0.347444E-02  0.112E-01    0.05       1.0  T
   6    -42.4121634  0.160769E-04  0.787E-02    0.06       1.0  T
   7    -42.4122295 -0.661262E-04  0.346E-02    0.06       1.0  T
   8    -42.4122712 -0.416429E-04  0.797E-03    0.05       2.5  T
   9    -42.4122722 -0.102362E-05  0.535E-03    0.05       3.7  T
  10    -42.4122728 -0.552856E-06  0.175E-03    0.05      11.4  T
  11    -42.4122728 -0.615564E-07  0.570E-04    0.05      35.1  T
  12    -42.4122728 -0.566348E-08  0.142E-04    0.05     141.1  T
     SCC iter.                  ...        0 min,  0.016 sec
     gradient                   ...        0 min,  0.013 sec
 * total energy  :   -76.2798154 Eh     change       -0.7833031E+01 Eh
   gradient norm :    18.0941772 Eh/α   predicted    -0.4570405E+01 ( -41.65%)
   displ. norm   :     0.8810574 α      lambda       -0.1592528E+02
   maximum displ.:     0.8762072 α      in ANC's #1, #48, #61, ...

........................................................................
.............................. CYCLE   49 ..............................
........................................................................

 iter      E             dE          RMSdq      gap      omega  full diag
   1    -42.6179248 -0.426179E+02  0.181E+00    0.18       0.0  T
   2    -42.6203801 -0.245532E-02  0.112E+00    0.06       1.0  T
   3    -42.6315482 -0.111681E-01  0.782E-01    0.05       1.0  T
   4    -42.6309755  0.572655E-03  0.369E-01    0.09       1.0  T
   5    -42.6355292 -0.455367E-02  0.145E-01    0.06       1.0  T
   6    -42.6361296 -0.600412E-03  0.528E-02    0.04       1.0  T
   7    -42.6361772 -0.475753E-04  0.260E-02    0.04       1.0  T
   8    -42.6361844 -0.723890E-05  0.129E-02    0.04       1.6  T
   9    -42.6361867 -0.231154E-05  0.363E-03    0.04       5.5  T
  10    -42.6361869 -0.215213E-06  0.141E-03    0.04      14.2  T
  11    -42.6361870 -0.307014E-07  0.546E-04    0.04      36.6  T
  12    -42.6361870  0.400448E-09  0.288E-04    0.04      69.5  T
     SCC iter.                  ...        0 min,  0.016 sec
     gradient                   ...        0 min,  0.013 sec
 * total energy  :   -77.9909432 Eh     change       -0.1711128E+01 Eh
   gradient norm :    36.1046899 Eh/α   predicted    -0.1415244E+02 ( 727.08%)
   displ. norm   :     0.9399452 α      lambda       -0.3390403E+02
   maximum displ.:     0.9297872 α      in ANC's #1, #60, #48, ...

........................................................................
.............................. CYCLE   50 ..............................
........................................................................

 iter      E             dE          RMSdq      gap      omega  full diag
   1    -42.7167887 -0.427168E+02  0.118E+00    0.13       0.0  T
   2    -42.7201089 -0.332022E-02  0.847E-01    0.06       1.0  T
   3    -42.7324850 -0.123761E-01  0.498E-01    0.03       1.0  T
   4    -42.7341860 -0.170108E-02  0.265E-01    0.10       1.0  T
   5    -42.7358084 -0.162241E-02  0.685E-02    0.02       1.0  T
   6    -42.7358857 -0.772254E-04  0.352E-02    0.03       1.0  T
[...]
   3    -42.6201867 -0.212555E-01  0.169E-01    0.31       1.0  T
   4    -42.6206116 -0.424864E-03  0.813E-02    0.29       1.0  T
   5    -42.6206465 -0.348921E-04  0.226E-02    0.31       1.0  T
   6    -42.6206633 -0.167850E-04  0.794E-03    0.31       2.5  T
   7    -42.6206642 -0.974671E-06  0.313E-03    0.31       6.4  T
   8    -42.6206642 -0.865277E-08  0.123E-03    0.31      16.2  T
   9    -42.6206643 -0.215955E-07  0.351E-04    0.31      56.9  T
  10    -42.6206643 -0.692452E-09  0.177E-04    0.31     113.3  T
     SCC iter.                  ...        0 min,  0.014 sec
     gradient                   ...        0 min,  0.013 sec
 * total energy  :   -79.7370207 Eh     change       -0.1013513E+01 Eh
   gradient norm :     1.6632225 Eh/α   predicted    -0.8909106E+00 ( -12.10%)
   displ. norm   :     0.2895603 α      lambda       -0.5237691E-01
   maximum displ.:     0.1272811 α      in ANC's #61, #48, #59, ...

........................................................................
.............................. CYCLE  119 ..............................
........................................................................

 iter      E             dE          RMSdq      gap      omega  full diag
   1    -42.5593462 -0.425593E+02  0.857E-01    0.15       0.0  T
   2    -42.4817965  0.775497E-01  0.165E+00    0.36       1.0  T
   3    -42.5875289 -0.105732E+00  0.286E-01    0.22       1.0  T
   4    -42.5876610 -0.132132E-03  0.227E-01    0.17       1.0  T
   5    -42.5881033 -0.442277E-03  0.935E-02    0.18       1.0  T
   6    -42.5883109 -0.207610E-03  0.364E-02    0.19       1.0  T
   7    -42.5883489 -0.379975E-04  0.124E-02    0.18       1.6  T
   8    -42.5883498 -0.904422E-06  0.846E-03    0.19       2.4  T
   9    -42.5883512 -0.136635E-05  0.159E-03    0.19      12.6  T
  10    -42.5883512 -0.285937E-07  0.672E-04    0.19      29.8  T
  11    -42.5883512 -0.452327E-08  0.187E-04    0.19     107.2  T
     SCC iter.                  ...        0 min,  0.015 sec
     gradient                   ...        0 min,  0.013 sec
 * total energy  :   -79.7453688 Eh     change       -0.8348022E-02 Eh
   gradient norm :     0.3102664 Eh/α   predicted    -0.2838557E-01 ( 240.03%)
   displ. norm   :     0.1670863 α      lambda       -0.1709201E-01
   maximum displ.:     0.0756323 α      in ANC's #61, #48, #59, ...

........................................................................
.............................. CYCLE  120 ..............................
........................................................................

 iter      E             dE          RMSdq      gap      omega  full diag
   1    -42.6051998 -0.426052E+02  0.427E-01    0.34       0.0  T
   2    -42.5941033  0.110965E-01  0.699E-01    0.25       1.0  T
   3    -42.6114338 -0.173305E-01  0.129E-01    0.24       1.0  T
   4    -42.6114483 -0.144883E-04  0.959E-02    0.26       1.0  T
   5    -42.6115463 -0.980449E-04  0.194E-02    0.26       1.0  T
   6    -42.6115529 -0.659552E-05  0.955E-03    0.26       2.1  T
   7    -42.6115532 -0.262372E-06  0.591E-03    0.26       3.4  T
   8    -42.6115540 -0.794827E-06  0.206E-03    0.26       9.7  T
   9    -42.6115541 -0.811712E-07  0.598E-04    0.26      33.4  T
  10    -42.6115541 -0.664416E-08  0.223E-04    0.26      89.9  T
     SCC iter.                  ...        0 min,  0.014 sec
     gradient                   ...        0 min,  0.013 sec
 * total energy  :   -79.7547124 Eh     change       -0.9343594E-02 Eh
   gradient norm :     0.7923937 Eh/α   predicted    -0.8784921E-02 (  -5.98%)
   displ. norm   :     0.0579435 α      lambda       -0.1241149E-01
   maximum displ.:     0.0261663 α      in ANC's #61, #48, #1, ...
 * RMSD in coord.:     0.0806416 α      energy gain   0.5161140E-01 Eh

generating ANC from model Hessian ...
Using Lindh-Hessian (1995)
 Shifting diagonal of input Hessian by    3.5671284232777425     
 Lowest  eigenvalues of input Hessian
    0.010000    0.000000    0.000000    0.000000    0.000000    0.000000
    0.000000    3.569362    3.571655    3.572406    3.572504    3.573488
    3.577553    3.578999    3.581002    3.582849    3.585214    3.590740
 Highest eigenvalues
    5.752806    5.822697    5.935858    6.086949   79.468578   88.050364


........................................................................
.............................. CYCLE  121 ..............................
........................................................................

 iter      E             dE          RMSdq      gap      omega  full diag
   1    -42.6224976 -0.426225E+02  0.211E-01    0.32       0.0  T
   2    -42.6204089  0.208872E-02  0.310E-01    0.27       1.0  T
   3    -42.6239526 -0.354372E-02  0.531E-02    0.28       1.0  T
   4    -42.6239715 -0.188566E-04  0.342E-02    0.29       1.0  T
   5    -42.6239785 -0.704793E-05  0.887E-03    0.29       2.3  T
   6    -42.6239800 -0.147465E-05  0.385E-03    0.29       5.2  T
   7    -42.6239803 -0.266948E-06  0.136E-03    0.29      14.7  T
   8    -42.6239803 -0.241344E-07  0.538E-04    0.29      37.2  T
   9    -42.6239803 -0.338534E-08  0.201E-04    0.29      99.5  T
     SCC iter.                  ...        0 min,  0.012 sec
     gradient                   ...        0 min,  0.013 sec
 * total energy  :   -79.7587510 Eh     change       -0.4038609E-02 Eh
   gradient norm :     0.7352093 Eh/α   predicted     0.0000000E+00 (-100.00%)
   displ. norm   :     0.9881589 α      lambda       -0.7037391E+00
   maximum displ.:     0.9874549 α      in ANC's #1, #60, #69, ...

........................................................................
.............................. CYCLE  122 ..............................
........................................................................

 iter      E             dE          RMSdq      gap      omega  full diag
   1    -42.4172795 -0.424173E+02  0.195E+00    0.10       0.0  T
   2    -42.1755871  0.241692E+00  0.268E+00    0.22       1.0  T
   3    -42.4741828 -0.298596E+00  0.898E-01    0.07       1.0  T
   4    -42.4869243 -0.127415E-01  0.702E-01    0.17       1.0  T
   5    -42.4916000 -0.467577E-02  0.204E-01    0.13       1.0  T
   6    -42.4920829 -0.482880E-03  0.141E-01    0.10       1.0  T
   7    -42.4927061 -0.623232E-03  0.346E-02    0.10       1.0  T
   8    -42.4927224 -0.162344E-04  0.156E-02    0.10       1.3  T
   9    -42.4927267 -0.430529E-05  0.586E-03    0.10       3.4  T
  10    -42.4927272 -0.541236E-06  0.220E-03    0.10       9.1  T
  11    -42.4927272 -0.339971E-07  0.672E-04    0.10      29.8  T
  12    -42.4927273 -0.634719E-08  0.307E-04    0.10      65.1  T
     SCC iter.                  ...        0 min,  0.016 sec
     gradient                   ...        0 min,  0.013 sec
 * total energy  :   -76.8561229 Eh     change        0.2902628E+01 Eh
   gradient norm :    17.3918262 Eh/α   predicted    -0.6954554E+00 (-123.96%)
   displ. norm   :     0.6022465 α      lambda       -0.1046983E+02
   maximum displ.:     0.6001071 α      in ANC's #1, #61, #66, ...

........................................................................
.............................. CYCLE  123 ..............................
........................................................................

 iter      E             dE          RMSdq      gap      omega  full diag
   1    -42.5588138 -0.425588E+02  0.146E+00    0.38       0.0  T
   2    -42.5404473  0.183665E-01  0.118E+00    0.21       1.0  T
   3    -42.5721345 -0.316872E-01  0.732E-01    0.14       1.0  T
   4    -42.5858578 -0.137233E-01  0.396E-01    0.17       1.0  T
   5    -42.5869202 -0.106240E-02  0.962E-02    0.17       1.0  T
   6    -42.5871332 -0.213021E-03  0.418E-02    0.14       1.0  T
   7    -42.5871693 -0.361139E-04  0.213E-02    0.15       1.0  T
   8    -42.5871734 -0.407631E-05  0.883E-03    0.15       2.3  T
   9    -42.5871746 -0.121993E-05  0.191E-03    0.15      10.5  T
  10    -42.5871746 -0.500907E-07  0.106E-03    0.15      18.9  T
  11    -42.5871746 -0.546382E-08  0.378E-04    0.15      53.0  T
  12    -42.5871746 -0.204083E-08  0.163E-04    0.15     122.9  T
     SCC iter.                  ...        0 min,  0.016 sec
     gradient                   ...        0 min,  0.013 sec
================
 final structure:
================
25
 xtb: 6.6.1 (8d0f1dd)
C            3.21786164340000        1.13591514650000        0.01837059260000
N            2.27034809790000        0.05199982890000        0.00038279530000
C            2.54167221030000       -1.23971668410000       -0.00834188300000
N            1.39367826450000       -1.95088267900000       -0.00850347120000
C            0.35269634020000       -1.06748964300000        0.00059917290000
C            0.90759959010000        0.20069750900000        0.00663590170000
C            0.07590235260000        1.39864294500000       -0.00284827040000
O            0.48715076820000        2.53168346660000       -0.01725767220000
N           -1.27221500230000        1.06666939660000        0.00165480230000
C           -2.23229981500000        2.16656245330000       -0.00245172030000
C           -1.84872931540000       -0.19179276200000        0.00496135950000
O           -3.03273030250000       -0.36103538130000        0.00858583760000
N           -0.96599111670000       -1.30060631840000        0.00174701630000
C           -1.52030655580000       -2.64076660390000       -0.00239033190000
H            3.71480285180000        1.18589984860000        0.98803183970000
H            3.97079415090000        0.99383197990000       -0.75543416370000
H            2.68321036910000        2.07051068580000       -0.15067179540000
H            3.52469367910000       -1.66989040330000       -0.01523639120000
H           -1.67672429040000        3.10039111610000        0.00486339690000
H           -2.85755792270000        2.10547813320000       -0.89185337000000
H           -2.87119733260000        2.09858159720000        0.87661144540000
H           -1.20589108080000       -3.18768007210000        0.88663215920000
H           -1.21982032550000       -3.17678505510000       -0.90288069810000
H           -2.60531402170000       -2.54255916880000        0.00649952960000
H            1.32879827740000       -2.95942079410000       -0.01653446370000

 Bond Distances (Angstroems)
 ---------------------------
C1-N2=1.4398         C1-H15=1.0907        C1-H16=1.0890        C1-H17=1.0899        N2-C1=1.4398         N2-C3=1.3199         
N2-C6=1.3709         C3-N2=1.3199         C3-N4=1.3504         C3-H18=1.0730        N4-C3=1.3504         N4-C5=1.3653         
N4-H25=1.0107        C5-N4=1.3653         C5-C6=1.3843         C5-N13=1.3391        C6-N2=1.3709         C6-C5=1.3843         
C6-C7=1.4584         C7-C6=1.4584         C7-O8=1.2055         C7-N9=1.3884         O8-C7=1.2055         N9-C7=1.3884         
N9-C10=1.4600        N9-C11=1.3842        C10-N9=1.4600        C10-H19=1.0866       C10-H20=1.0889       C10-H21=1.0888       
C11-N9=1.3842        C11-O12=1.1960       C11-N13=1.4173       O12-C11=1.1960       N13-C5=1.3391        N13-C11=1.4173       
N13-C14=1.4503       C14-N13=1.4503       C14-H22=1.0901       C14-H23=1.0902       C14-H24=1.0895       H15-C1=1.0907        
H16-C1=1.0890        H17-C1=1.0899        H18-C3=1.0730        H19-C10=1.0866       H20-C10=1.0889       H21-C10=1.0888       
H22-C14=1.0901       H23-C14=1.0902       H24-C14=1.0895       H25-N4=1.0107        
 C  H  Rav=1.0877 sigma=0.0050  Rmin=1.0730  Rmax=1.0907    10
 C  C  Rav=1.4213 sigma=0.0370  Rmin=1.3843  Rmax=1.4584     2
 N  H  Rav=1.0107 sigma=0.0000  Rmin=1.0107  Rmax=1.0107     1
 N  C  Rav=1.3896 sigma=0.0445  Rmin=1.3199  Rmax=1.4600    11
 O  C  Rav=1.2007 sigma=0.0047  Rmin=1.1960  Rmax=1.2055     2

 selected bond angles (degree)
 --------------------
H15-C1-N2=110.21               H16-C1-N2=110.36               H16-C1-H15=108.82              H17-C1-N2=108.71               
H17-C1-H15=108.79              H17-C1-H16=109.93              C3-N2-C1=126.98                C6-N2-C1=124.92                
C6-N2-C3=108.09                N4-C3-N2=109.91                H18-C3-N2=125.50               H18-C3-N4=124.59               
C5-N4-C3=107.90                H25-N4-C3=125.46               H25-N4-C5=126.64               C6-C5-N4=106.69                
N13-C5-N4=129.66               N13-C5-C6=123.66               C5-C6-N2=107.40                C7-C6-N2=130.99                
C7-C6-C5=121.59                O8-C7-C6=125.28                N9-C7-C6=110.94                N9-C7-O8=123.78                
C10-N9-C7=117.28               C11-N9-C7=128.45               C11-N9-C10=114.27              H19-C10-N9=108.13              
H20-C10-N9=109.73              H20-C10-H19=110.32             H21-C10-N9=109.67              H21-C10-H19=110.38             
H21-C10-H20=108.60             

 selected dihedral angles (degree)
 ---------------------------------
C3-N2-C1-H15=289.54           C3-N2-C1-H16= 49.76           C3-N2-C1-H17=170.39           C6-N2-C1-H15=108.66           
C6-N2-C1-H16=228.88           C6-N2-C1-H17=349.51           N4-C3-N2-C1=179.26            N4-C3-N2-C6=  0.00            
H18-C3-N2-C1=359.21           H18-C3-N2-C6=179.97           C5-N4-C3-N2=  0.00            C5-N4-C3-H18=180.05           
H25-N4-C3-N2=179.85           H25-N4-C3-H18=359.90          C6-C5-N4-C3=  0.00            C6-C5-N4-H25=180.14           
N13-C5-N4-C3=179.88           N13-C5-N4-H25=  0.03          C5-C6-N2-C1=180.71            C5-C6-N2-C3=359.97            
C7-C6-N2-C1=  1.78            C7-C6-N2-C3=181.03            N2-C6-C5-N4=  0.03            N2-C6-C5-N13=180.13           
C7-C6-C5-N4=179.08            C7-C6-C5-N13=359.18           O8-C7-C6-N2=359.91            O8-C7-C6-C5=181.10            
N9-C7-C6-N2=179.67            N9-C7-C6-C5=  0.86            C10-N9-C7-C6=179.81           C10-N9-C7-O8=359.58           
C11-N9-C7-C6=359.56           C11-N9-C7-O8=179.33           H19-C10-N9-C7=359.25          H19-C10-N9-C11=179.46         
H20-C10-N9-C7=119.63          H20-C10-N9-C11=299.84         H21-C10-N9-C7=238.84          H21-C10-N9-C11= 59.06         
           -------------------------------------------------
          |                Final Singlepoint                |
           -------------------------------------------------

          ...................................................
          :                      SETUP                      :
          :.................................................:
          :  # basis functions                  67          :
          :  # atomic orbitals                  67          :
          :  # shells                           39          :
          :  # electrons                        74          :
          :  max. iterations                   250          :
          :  Hamiltonian                  GFN2-xTB          :
          :  restarted?                      false          :
          :  GBSA solvation                  false          :
          :  PC potential                    false          :
          :  electronic temp.         5000.0000000     K    :
          :  accuracy                    1.0000000          :
          :  -> integral cutoff          0.2500000E+02      :
          :  -> integral neglect         0.1000000E-07      :
          :  -> SCF convergence          0.1000000E-05 Eh   :
          :  -> wf. convergence          0.1000000E-03 e    :
          :  Broyden damping             0.4000000          :
          ...................................................

 iter      E             dE          RMSdq      gap      omega  full diag
   1    -42.6533827 -0.426534E+02  0.235E+00    3.40       0.0  T
   2    -42.7356632 -0.822806E-01  0.173E+00    2.89       1.0  T
   3    -42.7774619 -0.417986E-01  0.832E-01    3.43       1.0  T
   4    -42.7781135 -0.651584E-03  0.303E-01    3.28       1.0  T
   5    -42.7789909 -0.877433E-03  0.830E-02    3.32       1.0  T
   6    -42.7790689 -0.780151E-04  0.402E-02    3.34       1.0  T
   7    -42.7790769 -0.799374E-05  0.163E-02    3.34       1.2  T
   8    -42.7790779 -0.975435E-06  0.486E-03    3.34       4.1  T
   9    -42.7790779 -0.536129E-07  0.267E-03    3.34       7.5  T
  10    -42.7790780 -0.493016E-07  0.716E-04    3.34      27.9  T
  11    -42.7790780 -0.371747E-08  0.249E-04    3.34      80.4  T

   *** convergence criteria satisfied after 11 iterations ***

         #    Occupation            Energy/Eh            Energy/eV
      -------------------------------------------------------------
         1        2.0000           -0.9185974             -24.9963
       ...           ...                  ...                  ...
        31        1.9996           -0.6230270             -16.9534
        32        1.9995           -0.6194574             -16.8563
        33        1.9979           -0.5974947             -16.2587
        34        1.9932           -0.5789576             -15.7542
        35        1.9817           -0.5631817             -15.3250
        36        1.9779           -0.5602198             -15.2444
        37        1.9748           -0.5581201             -15.1872 (HOMO)
        38        0.0652           -0.4353570             -11.8467 (LUMO)
        39        0.0099           -0.4050434             -11.0218
        40        0.0013           -0.3732167             -10.1557
        41        0.0000           -0.2886811              -7.8554
        42                         -0.2065768              -5.6212
       ...                                ...                  ...
        67                          0.5625710              15.3083
      -------------------------------------------------------------
                  HL-Gap            0.1227631 Eh            3.3406 eV
             Fermi-level           -0.4890428 Eh          -13.3075 eV

 SCC (total)                   0 d,  0 h,  0 min,  0.034 sec
 SCC setup                      ...        0 min,  0.000 sec (  0.565%)
 Dispersion                     ...        0 min,  0.000 sec (  0.574%)
 classical contributions        ...        0 min,  0.000 sec (  0.205%)
 integral evaluation            ...        0 min,  0.005 sec ( 14.704%)
 iterations                     ...        0 min,  0.015 sec ( 44.846%)
 molecular gradient             ...        0 min,  0.013 sec ( 38.644%)
 printout                       ...        0 min,  0.000 sec (  0.422%)

         :::::::::::::::::::::::::::::::::::::::::::::::::::::
         ::                     SUMMARY                     ::
         :::::::::::::::::::::::::::::::::::::::::::::::::::::
         :: total energy             -44.896100435007 Eh    ::
         :: gradient norm              6.510272207800 Eh/a0 ::
         :: HOMO-LUMO gap              3.340553462106 eV    ::
         ::.................................................::
         :: SCC energy               -42.779077976988 Eh    ::
         :: -> isotropic ES            0.141123205337 Eh    ::
         :: -> anisotropic ES         -0.005230030517 Eh    ::
         :: -> anisotropic XC          0.011966781885 Eh    ::
         :: -> dispersion             -0.022657733994 Eh    ::
         :: repulsion energy           0.531105277918 Eh    ::
         :: add. restraining          -2.648241894946 Eh    ::
         :: total charge               1.000000000002 e     ::
         :::::::::::::::::::::::::::::::::::::::::::::::::::::


last geometry written to: xtblast.xyz

########################################################################
[ERROR] Program stopped due to fatal error
-5- Geometry optimization failed
-4- xtb_geoopt: Trying to recover from failed geometry optimization
-3- xtb_geoopt: Geometry optimization did not converge
-2- optimizer_ancopt: Could not relax structure
-1- optimizer_relax: |grad| > 500, something is totally wrong!
########################################################################
