25
 energy: 47.957901688854 xtb: 6.6.1 (8d0f1dd)
C            3.30774255267764        1.55776304764692        0.13302734605763
N            2.63678934170390        0.27986293140032        0.05490866915126
C            3.08835480596495       -0.97382110427782        0.08410075322700
N            2.03741825517909       -1.84366345137542        0.05016078576000
C            0.85628576271207       -1.12388044926108       -0.00666314805104
C            1.27564559404844        0.21507268490801       -0.01775774469989
C            0.34532020518814        1.29805365019738       -0.08407448349810
O            0.63069154256298        2.49171955924669       -0.12332175525200
N           -0.93612141964531        0.84119074980401       -0.07939008740900
C           -1.99885065510777        1.83152318332677       -0.06610748540799
C           -1.32274549846718       -0.52181056809570       -0.02731993444889
O           -2.52101988442928       -0.67015999316488        0.02016775711523
N           -0.39872741674484       -1.53014211619214       -0.02237446821749
C           -3.47666937879284       -3.01023594697099       -0.13160612617977
H            4.01636493154858        1.58275176761931        0.95622409847496
H            3.82943523456712        1.77270509193529       -0.79931499249603
H            2.53464977801809        2.32130075099486        0.29637444452459
H            4.11600944149358       -1.27175713757494        0.13830070431244
H           -1.51206859997816        2.80638385816486       -0.07302708875574
H           -2.63636981252263        1.70151845737869       -0.93948765455585
H           -2.60938150086126        1.71063894899267        0.82920413432496
H           -3.25222241249031       -3.55043469326022        0.75335395757888
H           -3.31972801381981       -3.44351562032888       -1.08648877851727
H           -3.76984129912906       -2.00166981925050       -0.06307616636710
H            2.10711482550714       -2.85235105845153        0.08607438731079
