25
 energy: 0.000000000000 xtb: 6.6.1 (8d0f1dd)
C            3.23720132972391        1.16630909158653        0.08434468864950
N            2.29877796055224        0.07527476373246        0.03981602671198
C            2.58028186251803       -1.21425391179017        0.03006175752192
N            1.43813944744728       -1.93419254010258        0.00098261751768
C            0.39035684826767       -1.05887462812143       -0.00790371763344
C            0.93510047688824        0.21347817468824        0.01709077332874
C            0.09450143016486        1.40504290868848       -0.00410946993748
O            0.49712746915594        2.54126690785742       -0.00342325656480
N           -1.25076628431515        1.06271869620815       -0.03085477937476
C           -2.21907191394203        2.15522079838987       -0.05001256521996
C           -1.81739470187490       -0.20012724136556       -0.04692818139228
O           -2.99983858926755       -0.37846413507442       -0.07008877579474
N           -0.92618577614240       -1.30210203518959       -0.03682761236648
C           -1.46982251276835       -2.64643077634382       -0.06029819901142
H            3.71247229913541        1.21471443890471        1.06488839270555
H            4.00791460421487        1.03430799217987       -0.67357688121503
H            2.69909982127087        2.09770098766290       -0.09130154035862
H            3.56654087521359       -1.63682977417947        0.04233139674524
H           -1.67107945562430        3.09322822573871       -0.02552706696334
H           -2.82428927394145        2.09428605349656       -0.95318074103337
H           -2.87644002486466        2.07745706351925        0.81450059976605
H           -1.17061985538665       -3.19584861009707        0.83242224714061
H           -1.14560246782873       -3.17511580834413       -0.95688266944647
H           -2.55549768731684       -2.55659960601237       -0.07459039105944
H            1.38130842369251       -2.94313824728853       -0.01389874052104
25
 energy: -5.623153626030 xtb: 6.6.1 (8d0f1dd)
C            3.23738972224326        1.17223659690568        0.08697232038794
N            2.30191386603457        0.09492822139606        0.03605052737491
C            2.60072064318592       -1.25135553211546        0.03220339395888
N            1.42616541920444       -1.97260794713868       -0.00082655498004
C            0.40449500734056       -1.08050537360622       -0.00798754939064
C            0.91629124792313        0.21301240538936        0.01606319688928
C            0.11403465470620        1.38096470615091       -0.00453817756540
O            0.49307233982827        2.55738213796149       -0.00509118678771
N           -1.27072434983792        1.05424177472217       -0.03098509122547
C           -2.22348122741618        2.15324991096565       -0.05003925044105
C           -1.81618403524742       -0.19237717128033       -0.04644067068469
O           -3.01510414937806       -0.38065633878034       -0.06970256003816
N           -0.93845312313988       -1.29799680454830       -0.03566559699982
C           -1.47228033186488       -2.63776954519211       -0.05949092581409
H            3.71712080563194        1.22298139491421        1.06846323232011
H            4.00920005809140        1.04057617115783       -0.67361327508579
H            2.69921152295543        2.10260606242091       -0.09020266969646
H            3.58068839585273       -1.65395179770218        0.04664138736765
H           -1.66872301872218        3.08954873001461       -0.02660597728234
H           -2.82976076994053        2.09712772546163       -0.95380360726172
H           -2.88093130859865        2.08131038953639        0.81587615534249
H           -1.16403804402264       -3.18721645117342        0.83302511805181
H           -1.13875973728902       -3.16709379338653       -0.95535449541371
H           -2.55714452473622       -2.55103922707234       -0.07438623874380
H            1.41789265292501       -2.99826036695229       -0.02751560438506
25
 energy: -3.653778853367 xtb: 6.6.1 (8d0f1dd)
C            3.23476984394549        1.17256294051865        0.08773414359780
N            2.30065576622496        0.08963336708654        0.03634722218542
C            2.60152290279845       -1.26164603741844        0.03207120746467
N            1.43379007606096       -2.00468240789802       -0.00372837020829
C            0.41052626704286       -1.09933661388118       -0.00946039960696
C            0.91383778163464        0.20053796339166        0.01618117638545
C            0.11284870076127        1.37479487263422       -0.00309991210033
O            0.49242138941385        2.55308322285473       -0.00365150588058
N           -1.27380653097733        1.05686303815457       -0.03034540134827
C           -2.22770474869919        2.15588244726422       -0.05081659533947
C           -1.81711422167258       -0.18974910976357       -0.04585335991137
O           -3.01637889149112       -0.37895439456777       -0.06924828947569
N           -0.93783521607156       -1.29542264782650       -0.03513982638078
C           -1.47352594812320       -2.63327519340607       -0.05850047932796
H            3.71599051025834        1.22659435222781        1.06892793871085
H            4.00776433979074        1.04409855901494       -0.67276548295517
H            2.69834520704237        2.10489375374350       -0.08980778957739
H            3.58781082150551       -1.64742984497204        0.05078140152540
H           -1.67499681361742        3.09333238982462       -0.02728097489834
H           -2.83369771182335        2.09985622246441       -0.95490655893213
H           -2.88708651165972        2.08466498341839        0.81387803655095
H           -1.16039783600229       -3.18091256681475        0.83337326753240
H           -1.13735986661868       -3.16076395611035       -0.95444753617232
H           -2.55788363935077       -2.54610948935771       -0.07216681686697
H            1.47086762935626       -3.05250470625701       -0.03971248833052
25
 energy: -0.245695507471 xtb: 6.6.1 (8d0f1dd)
C            3.23176118764592        1.17230268668425        0.08746876454899
N            2.29670602474348        0.08555008841226        0.03672376563236
C            2.59950893318871       -1.27012298033828        0.03500984028293
N            1.44099113807510       -2.03527290775609       -0.00506297674647
C            0.41459510458980       -1.11724267183614       -0.00942617806560
C            0.90896807273629        0.18915242360901        0.01711020192518
C            0.10907861226436        1.37189038657905       -0.00044538233254
O            0.48789635286853        2.54999400420479       -0.00267427569468
N           -1.27855916990721        1.05958152516694       -0.02950132376664
C           -2.23127028606891        2.16028596479940       -0.05115552214306
C           -1.81944222694317       -0.18760773717158       -0.04534372832963
O           -3.01915592832427       -0.37762216475434       -0.06985012707577
N           -0.93869258662567       -1.29338108684873       -0.03445270179947
C           -1.47515512361372       -2.63005858607990       -0.05822458428447
H            3.71631126853483        1.22880503089583        1.06752514984635
H            4.00502201222230        1.04351495544020       -0.67340939966629
H            2.70035906212259        2.10825344582568       -0.09094325370033
H            3.58968492367787       -1.63960982316880        0.05353714612820
H           -1.67730419295567        3.09717260639179       -0.02796596657011
H           -2.83740246850665        2.10615467038750       -0.95533037044965
H           -2.89162675645135        2.09188679131299        0.81311694243698
H           -1.15725865371823       -3.17613461295029        0.83292330115321
H           -1.13473717632714       -3.15490715986369       -0.95413608576379
H           -2.55922466742155       -2.54473477469896       -0.07159445573631
H            1.52922994326516       -3.10719037183404       -0.04827773990878
25
 energy: 4.834375066173 xtb: 6.6.1 (8d0f1dd)
C            3.22774334719005        1.17238382163918        0.08912092207936
N            2.29575106558639        0.08056671614165        0.03310045764643
C            2.59393711920177       -1.27951591562262        0.03979593797164
N            1.44468265610528       -2.06613672343347       -0.00773745605858
C            0.41854602283393       -1.13209399323449       -0.01397737046972
C            0.90750610932529        0.18122306701008        0.01519552178493
C            0.10760630586211        1.36956943187844        0.00052454658395
O            0.48592276178258        2.54645645828981       -0.00269308092150
N           -1.28172703295432        1.06396805706663       -0.02929731194031
C           -2.23484818288639        2.16524742293402       -0.05177402582832
C           -1.82049061113741       -0.18312668235617       -0.04498853034735
O           -3.02067564028650       -0.37287823901957       -0.06784946841422
N           -0.93873723412071       -1.28922255494334       -0.03553010671150
C           -1.47511541981837       -2.62517212560726       -0.05697636865385
H            3.71264925023364        1.23111661220006        1.06931168826897
H            4.00258124083288        1.04894057846111       -0.67163694056481
H            2.69719095617146        2.11013081987366       -0.08784653413277
H            3.58768348645408       -1.63625096294625        0.05147960441697
H           -1.68356337899552        3.10386744593374       -0.02961484276403
H           -2.84185661743369        2.11062489422528       -0.95540903481012
H           -2.89611047845944        2.09785820721965        0.81198470128016
H           -1.15123043047320       -3.16829369443285        0.83390689420605
H           -1.13089241717417       -3.14847149328912       -0.95240000421694
H           -2.55889573871581       -2.54163989367546       -0.06881853355082
H            1.56707948661079       -3.17270429485376       -0.05496470889320
25
 energy: 21.606122789522 xtb: 6.6.1 (8d0f1dd)
C            3.22928986928296        1.18294841553952        0.08856907057345
N            2.28496011525472        0.09214801976079        0.03800249281976
C            2.53618564433450       -1.23663743640585        0.04462656605392
N            1.43154995851759       -1.96831473517234        0.00860435211423
C            0.40646299561222       -1.07438954096274       -0.01393062769943
C            0.91188982355363        0.22280074263262        0.01583921721001
C            0.08754868685262        1.40547703675898       -0.00056135210997
O            0.47013450518871        2.56141047459567       -0.00559592655912
N           -1.27296110094345        1.08213664519824       -0.02897821489025
C           -2.23842142768358        2.17328247315006       -0.05256843544590
C           -1.81968027493666       -0.18917816775097       -0.04433684212539
O           -3.01916323516006       -0.35495720556486       -0.06753720542259
N           -0.94074580844344       -1.26794847132791       -0.03508948960939
C           -1.47195628883997       -2.61442898648432       -0.05562784251830
H            3.71069127968009        1.23655913102743        1.06802705413033
H            4.00072704237617        1.05096458164913       -0.67062896575883
H            2.70369746163160        2.12250658688747       -0.09028735297652
H            3.54052081660746       -1.61646486951297        0.05277687083910
H           -1.69122334887741        3.11350423468152       -0.03036923633383
H           -2.84448745813821        2.11394677709274       -0.95603590745854
H           -2.89895465789999        2.10116077666231        0.81085359155194
H           -1.13963028070610       -3.15635538070759        0.83059764080880
H           -1.12163431794073       -3.13528828786793       -0.94773330153852
H           -2.55661924375313       -2.53688854721111       -0.06563702353982
H            1.69944445577379       -3.65058140550768       -0.09183788213551
25
 energy: 19.659977640532 xtb: 6.6.1 (8d0f1dd)
C            3.22885808515473        1.18509527058858        0.08716802181264
N            2.28045247018006        0.09501708367955        0.03883841720462
C            2.52329147174243       -1.23603970416667        0.04911154483182
N            1.42168185119272       -1.97355567543820        0.01338175995324
C            0.40285611498155       -1.06763536560343       -0.01445071533542
C            0.90891556859065        0.23010601036442        0.01410769197279
C            0.08310292198819        1.41290383656509       -0.00278647573310
O            0.46269318291650        2.56879414886060       -0.00702023981022
N           -1.27680546155643        1.08870098269536       -0.02912346752594
C           -2.24286018699425        2.17877569697158       -0.05284399209782
C           -1.82284999723270       -0.18349295602377       -0.04412375411392
O           -3.02229890359455       -0.35149127622524       -0.06391935621362
N           -0.94354891286515       -1.25980748395404       -0.03547813996490
C           -1.47089159832943       -2.60788238545441       -0.05527201575531
H            3.70884654758506        1.24100991376610        1.06757567840875
H            4.00085259730959        1.05305742933228       -0.67060177277119
H            2.70622247289824        2.12623568388123       -0.09452572257307
H            3.52966389576010       -1.61223149099844        0.05650380225666
H           -1.69643679252388        3.11947517507849       -0.03086712837684
H           -2.84833300177584        2.11821462453052       -0.95653897236503
H           -2.90389562219255        2.10617832180897        0.81008637022248
H           -1.13318616031856       -3.14823904689028        0.82988974347245
H           -1.11889636828132       -3.12729287937751       -0.94758305391921
H           -2.55571524400099       -2.53420607316342       -0.06286751677524
H            1.74684754512462       -3.74308452914968       -0.10354450316063
25
 energy: 18.603732307599 xtb: 6.6.1 (8d0f1dd)
C            3.22843011765342        1.18867116558238        0.08705864955460
N            2.27591710320851        0.10002181626500        0.03996829138806
C            2.51243963872489       -1.23282938026574        0.05473139986761
N            1.41152937248889       -1.97225432786979        0.02627923148806
C            0.39877426311952       -1.05856402011274       -0.01142959139035
C            0.90579729375857        0.23913746935706        0.01323212437552
C            0.07914047888845        1.42085502903063       -0.00409585003469
O            0.45519744183892        2.57746302528181       -0.00768118878396
N           -1.28069006855304        1.09566290887232       -0.02895283001757
C           -2.24749226115385        2.18461973600582       -0.05312286485575
C           -1.82538556115674       -0.17658725151526       -0.04379724848913
O           -3.02456261948569       -0.34486965999592       -0.06388613104158
N           -0.94669890632991       -1.25135911122737       -0.03514236166105
C           -1.46969030997233       -2.60097639288133       -0.05403991196110
H            3.70644495547288        1.24577620005429        1.06836766708134
H            4.00162241614589        1.05557985362588       -0.66898273339275
H            2.70994439320408        2.13185375379480       -0.09692304950091
H            3.51988264828376       -1.60663204197298        0.05909797388490
H           -1.70179266943279        3.12569705891123       -0.03128922294203
H           -2.85296198946443        2.12359873012879       -0.95677039833267
H           -2.90900934247720        2.11226867618979        0.80938829482524
H           -1.12818945311093       -3.13953709568442        0.83076223802351
H           -1.11509285068435       -3.11859258942017       -0.94646165036307
H           -2.55460941578256       -2.53211076028848       -0.05968792839426
H            1.79342429098884       -3.84225881907797       -0.11487855803038
25
 energy: 18.226577657815 xtb: 6.6.1 (8d0f1dd)
C            3.22800117921852        1.19234591046497        0.08886320494953
N            2.27122320301032        0.10710207160122        0.04125785588110
C            2.50190168428600       -1.22681813931518        0.05733508278041
N            1.40096036331318       -1.96571109157403        0.03526821058921
C            0.39393825529441       -1.04653806692049       -0.00779401664845
C            0.90246897734218        0.25045019149136        0.01206356072245
C            0.07494097358069        1.43032587613716       -0.00698782568256
O            0.44794556873580        2.58765929668727       -0.01033324617167
N           -1.28435591506407        1.10255703922121       -0.02918663356833
C           -2.25128213230336        2.19015651308039       -0.05337288140407
C           -1.82885968748176       -0.16987951226958       -0.04386637321250
O           -3.02786077476931       -0.33841571878410       -0.06523214830652
N           -0.95038188124510       -1.24253246789751       -0.03437265023478
C           -1.46743590301415       -2.59462866898159       -0.05276609805966
H            3.70396357984192        1.24758897334589        1.07099910946927
H            4.00214674601518        1.05761483126363       -0.66748825954761
H            2.71395631463988        2.13758986597290       -0.09603412106121
H            3.50983462263559       -1.59969880434185        0.05851591559789
H           -1.70425213874360        3.13034981941841       -0.03117048037134
H           -2.85649796976408        2.12890231022524       -0.95718781080503
H           -2.91257028611230        2.11739140814838        0.80923114850146
H           -1.12330994614983       -3.13150410102553        0.83207192517649
H           -1.10950319352197       -3.11036812039068       -0.94485870558423
H           -2.55232675712287       -2.53413114445772       -0.05968653957594
H            1.83968468593624       -3.94866931700789       -0.12640139586447
25
 energy: 18.281574347100 xtb: 6.6.1 (8d0f1dd)
C            3.22787835465652        1.19761731998926        0.08836575242526
N            2.26792602316663        0.11530178740570        0.04167080298931
C            2.49202459557708       -1.21962632205614        0.05867277902573
N            1.39011984297034       -1.95463545938015        0.03853909349765
C            0.38938544974805       -1.03264779696824       -0.00462919428641
C            0.90013999930464        0.26270465968607        0.01131899598631
C            0.07180138084441        1.44052083373562       -0.00819661655586
O            0.44430953700358        2.59827899698941       -0.00980589260456
N           -1.28714348642242        1.11009545466730       -0.02848128174263
C           -2.25517028357618        2.19596926119904       -0.05368913949433
C           -1.83202538820766       -0.16313812276164       -0.04353881566926
O           -3.03072960891110       -0.33141793115652       -0.06622244525637
N           -0.95340667736707       -1.23338865993579       -0.03388019222539
C           -1.46449498619587       -2.58777679594664       -0.05208322108053
H            3.70380809398262        1.25279978550064        1.06987489224734
H            4.00133488005961        1.06030950730081       -0.66812959762001
H            2.71815233187249        2.14499869269234       -0.09441171285809
H            3.49830064329000       -1.59704588458331        0.05858706584076
H           -1.70879385474341        3.13631152146611       -0.03139014795652
H           -2.85995302868888        2.13379672926159       -0.95777680985096
H           -2.91716069230209        2.12299136035499        0.80832253129422
H           -1.11966194855175       -3.12300224521449        0.83353766665841
H           -1.10378067828573       -3.10241901602654       -0.94354915783529
H           -2.54912849845547       -2.53268861927292       -0.06054880589041
H            1.88916091599926       -4.06577414515110       -0.13262932821708
25
 energy: 18.559898376637 xtb: 6.6.1 (8d0f1dd)
C            3.22931997504802        1.20241284369768        0.08749185714925
N            2.26511204388056        0.12561173843629        0.04112075087496
C            2.48386615401239       -1.20972424698536        0.05575798173522
N            1.38128767641433       -1.94025664218845        0.03970097451331
C            0.38498674851324       -1.01673577354667       -0.00085219706864
C            0.89795098858789        0.27688058186407        0.01163572944977
C            0.06863964806717        1.45253433776287       -0.00773511095038
O            0.44105355560272        2.61060228826520       -0.00697671296176
N           -1.29041463234036        1.11899636267467       -0.02744016057255
C           -2.26034895848952        2.20215599158675       -0.05430748804169
C           -1.83559858747934       -0.15485935573764       -0.04309328358533
O           -3.03421935280062       -0.32313580059577       -0.06684874692984
N           -0.95647467408171       -1.22262781209904       -0.03290592042697
C           -1.46141610906431       -2.58005957536387       -0.05206935566452
H            3.70449764916843        1.25369472127871        1.06936670203613
H            4.00078038848982        1.05761064451817       -0.66878868225761
H            2.72233584853178        2.15090910394590       -0.09518116936835
H            3.48748813632659       -1.59503710946906        0.06058708274260
H           -1.71563087590544        3.14303725595376       -0.03239989258094
H           -2.86443361307317        2.13769167977325       -0.95870094857467
H           -2.92306828832039        2.12882148715381        0.80705378429140
H           -1.11274635418286       -3.11401682933247        0.83274876768706
H           -1.09870878294811       -3.09350666659689       -0.94352414514667
H           -2.54611828971102       -2.53244229842773       -0.05960142663633
H            1.93683982989412       -4.19525560996694       -0.13425959349666
25
 energy: 18.900800131680 xtb: 6.6.1 (8d0f1dd)
C            3.23177820028436        1.20802596839334        0.08729570665106
N            2.26321054812215        0.13695447009845        0.04086733758684
C            2.47756890432796       -1.19812854827279        0.05019356700401
N            1.37473290000301       -1.92414609409655        0.03355598438666
C            0.38151325564478       -1.00033548564201        0.00105328055194
C            0.89640718178261        0.29146395522398        0.01252432523078
C            0.06556567217252        1.46449085189897       -0.00711311740194
O            0.43729136474227        2.62297261781547       -0.00636603621414
N           -1.29310238140076        1.12764899733372       -0.02713968556970
C           -2.26518896290913        2.20793574333384       -0.05413933719271
C           -1.83867054116429       -0.14669160721915       -0.04289161196897
O           -3.03720843823090       -0.31549081326515       -0.06808321096470
N           -0.95867312332222       -1.21143193217602       -0.03129047790839
C           -1.45940675587805       -2.57124690306413       -0.05215857977604
H            3.70776882122139        1.25388921872920        1.06920811393127
H            4.00197279866137        1.05724592175618       -0.66922442388767
H            2.72721763562277        2.15763657926125       -0.09569895459148
H            3.47752327969006       -1.59254036111352        0.06223444228020
H           -1.72165429775050        3.14926443365940       -0.03278688619235
H           -2.86979389477058        2.14139988149736       -0.95821442841701
H           -2.92781961091974        2.13337035585958        0.80734645487332
H           -1.10794575155944       -3.10469171320949        0.83176176444957
H           -1.09497837657408       -3.08368465002895       -0.94372276183911
H           -2.54445657435765       -2.52660027698838       -0.05942441474152
H            1.98004093566772       -4.32834954283766       -0.13313675002089
25
 energy: 19.215038834782 xtb: 6.6.1 (8d0f1dd)
C            3.23348931987928        1.21536944002495        0.08789890712291
N            2.26174724833114        0.14891203920725        0.04155672910862
C            2.47337651808466       -1.18520650524092        0.04589226863545
N            1.36969834315338       -1.90691194002093        0.02677948122324
C            0.37835901250627       -0.98424445784696        0.00158427851596
C            0.89499009274912        0.30585333682346        0.01406944273090
C            0.06247340929005        1.47622604611529       -0.00505401186918
O            0.43352623656598        2.63513709066881       -0.00462984077934
N           -1.29527513210058        1.13655766850239       -0.02678144032298
C           -2.26919120444295        2.21432755473299       -0.05409454705208
C           -1.84119314137186       -0.13876327419811       -0.04230967545489
O           -3.03968880782752       -0.30787451078927       -0.06890086299025
N           -0.96047019589600       -1.20193249526478       -0.02922604705550
C           -1.45697252539944       -2.56334186765422       -0.05193380901232
H            3.71051838883403        1.25871735213461        1.06941518524980
H            4.00293124929730        1.06172964312752       -0.66930871396707
H            2.73025466254628        2.16540242472479       -0.09487833406042
H            3.46849591078153       -1.58985794265124        0.06434477352073
H           -1.72603904280426        3.15573513615138       -0.03315953317847
H           -2.87420003487376        2.14597757270616       -0.95804795691244
H           -2.93212136170873        2.13871254648493        0.80751857476306
H           -1.10229999666139       -3.09619699492536        0.83075915267673
H           -1.09083156724523       -3.07492523263118       -0.94319504676068
H           -2.54246221297385       -2.52260259021890       -0.05967891896212
H            2.01191388864939       -4.46586271661628       -0.12849134561237
25
 energy: 19.465365495622 xtb: 6.6.1 (8d0f1dd)
C            3.23448622773590        1.22299564451556        0.08893258739920
N            2.25987487480699        0.16070020654766        0.04189297577007
C            2.46992800934121       -1.17190647864942        0.04249110411940
N            1.36499629720234       -1.88949376322845        0.02448068090207
C            0.37527213352969       -0.96918811471990        0.00330817938047
C            0.89321776595934        0.31942784740692        0.01553625463637
C            0.05912144562776        1.48691907562273       -0.00380379495997
O            0.42940827236015        2.64642800370488       -0.00339208382787
N           -1.29683861012527        1.14253888488307       -0.02670017538943
C           -2.27216459993029        2.21968315530355       -0.05442246162960
C           -1.84190966488444       -0.13513106079627       -0.04104251040597
O           -3.04083520037792       -0.30175585972885       -0.06866044576062
N           -0.96143672794911       -1.19669295901319       -0.02208834062348
C           -1.45453950097623       -2.55775394722798       -0.05045854605353
H            3.71276897248860        1.26368156230847        1.07016433829806
H            4.00208335219152        1.06553587754450       -0.66936774413300
H            2.73433802432794        2.17460405733269       -0.09280277770721
H            3.45893304438421       -1.58801238580760        0.06390304832097
H           -1.72951496173815        3.16120878885174       -0.03362666207519
H           -2.87747714779041        2.15139882805853       -0.95842986649762
H           -2.93543244710085        2.14515604711934        0.80726525963396
H           -1.09712143948550       -3.08927968039484        0.83097185673982
H           -1.08704387652537       -3.06683263754583       -0.94234297189950
H           -2.54037213150576       -2.51760409286944       -0.05919688020930
H            2.04040882841374       -4.60469133276620       -0.11599114276371
25
 energy: 19.649950891895 xtb: 6.6.1 (8d0f1dd)
C            3.23651100599426        1.22984030792235        0.08894670318067
N            2.25938671390519        0.17196060166767        0.04248914741842
C            2.47024641594681       -1.15904913963075        0.04059859356391
N            1.36311444240691       -1.87260587424602        0.01944040566529
C            0.37347663846198       -0.95508900321001        0.00244091566758
C            0.89303379523000        0.33225290995255        0.01686520411216
C            0.05748552747168        1.49724920862198       -0.00497589418335
O            0.42646293334659        2.65738020196105       -0.00534479625963
N           -1.29549035602405        1.14637651129771       -0.02884944977230
C           -2.27301501919562        2.22311795297237       -0.05525285269673
C           -1.84140572601798       -0.13311934233866       -0.04289057333071
O           -3.04065009713629       -0.29803592631659       -0.06875258165398
N           -0.96210858307247       -1.19289946402547       -0.02511074465520
C           -1.45130750668622       -2.55458729098619       -0.05045210391622
H            3.71465234462929        1.26783951619784        1.07058776632280
H            4.00332593901926        1.06885250942534       -0.66926595896761
H            2.73707873505691        2.18110627771114       -0.09354610387380
H            3.45435014954154       -1.58394128351368        0.05888623551411
H           -1.73452852948791        3.16724533190883       -0.03439469562638
H           -2.87809063686320        2.15225376361327       -0.95879596431245
H           -2.93399405052693        2.14374314515925        0.80700830737376
H           -1.09017375494207       -3.08175304887448        0.83112769248872
H           -1.08133294258195       -3.06067603085917       -0.94173399508151
H           -2.53751781327521       -2.51587669642929       -0.05902530616502
H            2.04376366980716       -4.74692862895667       -0.10978014835956
25