25
 energy: 0.000000000000 xtb: 6.6.1 (8d0f1dd)
C            3.23720163006194        1.16630919979326        0.08434469647475
N            2.29877817382611        0.07527477071623        0.03981603040599
C            2.58028210190900       -1.21425402444508        0.03006176031096
N            1.43813958087363       -1.93419271955128        0.00098261760884
C            0.39035688448383       -1.05887472636071       -0.00790371836672
C            0.93510056364412        0.21347819449412        0.01709077491437
C            0.09450143893243        1.40504303904423       -0.00410947031874
O            0.49712751527797        2.54126714362870       -0.00342325688240
N           -1.25076640035757        1.06271879480407       -0.03085478223738
C           -2.21907211982101        2.15522099834493       -0.05001256985998
C           -1.81739487048744       -0.20012725993278       -0.04692818574614
O           -2.99983886758376       -0.37846417018721       -0.07008878229737
N           -0.92618586207120       -1.30210215599479       -0.03682761578324
C           -1.46982264913417       -2.64643102187190       -0.06029820460571
H            3.71247264356769        1.21471455160235        1.06488849150277
H            4.00791497605742        1.03430808813993       -0.67357694370751
H            2.69910007168542        2.09770118228144       -0.09130154882931
H            3.56654120610678       -1.63682992603973        0.04233140067262
H           -1.67107961066214        3.09322851271934       -0.02552706933167
H           -2.82428953597071        2.09428624779827       -0.95318082946668
H           -2.87644029173232        2.07745725625962        0.81450067533302
H           -1.17061996399332       -3.19584890659852        0.83242232437030
H           -1.14560257411436       -3.17511610292205       -0.95688275822323
H           -2.55549792440841       -2.55659984320617       -0.07459039797972
H            1.38130855184625       -2.94313852034425       -0.01389874181052
25
 energy: -4.944707790781 xtb: 6.6.1 (8d0f1dd)
C            3.24087176619415        1.17415180160792        0.09036682211953
N            2.30539825875351        0.09356061775337        0.03901844012957
C            2.59850938976659       -1.23463689885951        0.03058770194037
N            1.42782673811268       -1.94313309308725       -0.00092550081503
C            0.39628279824627       -1.05839342977485       -0.00883889167228
C            0.92742115545658        0.22443895191777        0.01519917113123
C            0.09440601965287        1.40237216650633       -0.00610937752269
O            0.46624198959193        2.58065919650821       -0.00584386530542
N           -1.26251448553275        1.04921411023971       -0.02974666914234
C           -2.20599897998477        2.16222763880179       -0.05215219847057
C           -1.82398646629454       -0.20589981898393       -0.04323376579105
O           -3.02009439704445       -0.39166191182149       -0.06662280399069
N           -0.93361171874685       -1.30705901636829       -0.03722878803843
C           -1.46654002851921       -2.65302221459258       -0.06419830855170
H            3.70961319415830        1.22445629259713        1.07653478139200
H            4.01502385120988        1.03466089604767       -0.66533464557206
H            2.69425237462643        2.09657641477419       -0.09501043389992
H            3.57714087365911       -1.66091765488186        0.04250367254649
H           -1.65386508046392        3.11165637833372       -0.05459904309872
H           -2.84430191459529        2.08061820383349       -0.92922349746727
H           -2.84187544368043        2.11615645965251        0.82240416868642
H           -1.15982893862965       -3.20854864562691        0.82446039661374
H           -1.13875411001849       -3.18154377804752       -0.96188885836056
H           -2.55243604949348       -2.56926373814180       -0.07611048537651
H            1.36303387151178       -2.94764032621581       -0.01697412533681
25
 energy: -4.960833851756 xtb: 6.6.1 (8d0f1dd)
C            3.24201731634632        1.17735226593364        0.10106985120835
N            2.30788356128111        0.10445851826906        0.03744373945531
C            2.60797583206523       -1.25268083311905        0.03205624876791
N            1.41261182365135       -1.94476263099763       -0.00395353640180
C            0.39857222289287       -1.05499221326149       -0.01145812151881
C            0.91839832110894        0.23606526093508        0.01186176244324
C            0.09345857759853        1.39537099833349       -0.01013579145376
O            0.41594853339225        2.60465652619611       -0.01113409699840
N           -1.27772332032164        1.03635707747840       -0.02864059053887
C           -2.19077541893230        2.17447096719518       -0.05438601693963
C           -1.82984073221926       -0.21182802278669       -0.03793548628231
O           -3.03110327005586       -0.40881257651679       -0.05773361204796
N           -0.94141345543164       -1.31054598218047       -0.03861310555601
C           -1.45672607248759       -2.66250542460868       -0.07258414597766
H            3.69751581290057        1.24049547334535        1.09516989002333
H            4.02947035301020        1.03496843272042       -0.64243469980589
H            2.69152538622470        2.09363427642074       -0.10159103307698
H            3.57921578195449       -1.68474281169551        0.04267136307882
H           -1.62287520491757        3.12726548745359       -0.12732678990815
H           -2.88890922653410        2.05405956459421       -0.88494479471069
H           -2.77614889929989        2.19728611686818        0.85684593873442
H           -1.13842731137995       -3.22790694698515        0.80820272893912
H           -1.12567194483245       -3.18715264307737       -0.97366772171790
H           -2.54369847447285       -2.59420244002711       -0.07938607953874
H            1.34093447639473       -2.94727983831550       -0.02236200402966
25
 energy: -2.697743276957 xtb: 6.6.1 (8d0f1dd)
C            3.23891004315762        1.17742105384513        0.11619270073951
N            2.30659448629454        0.10738430395837        0.03536562298067
C            2.60864105151095       -1.26832287758381        0.03450672037965
N            1.39747774340101       -1.94425020652050       -0.00733911767172
C            0.39652220474553       -1.05203169059921       -0.01581593116373
C            0.90971615500080        0.24479504184500        0.00767776332454
C            0.09241634285466        1.39132042660784       -0.01549931408724
O            0.37133804750617        2.61863056401961       -0.01930164486723
N           -1.29390755378726        1.02969029802188       -0.02920286400490
C           -2.17881751671142        2.18994766106937       -0.05765616966911
C           -1.83756162619015       -0.21659795100796       -0.03245222531274
O           -3.03962471160835       -0.42733454452509       -0.04443753581339
N           -0.94835909312019       -1.31344915049268       -0.04143704295104
C           -1.44125192850553       -2.67423685671796       -0.08549105911660
H            3.67029079590571        1.25943040433416        1.12211016894209
H            4.04901176481261        1.03199974892946       -0.60421376045361
H            2.69049049349782        2.09001035819957       -0.11255881929190
H            3.57462650714457       -1.70706378346241        0.04204258105836
H           -1.59286883206726        3.13799144476148       -0.24475383783190
H           -2.96381853729025        2.01211468077113       -0.81425489055187
H           -2.67570465771464        2.31509576821531        0.91497395586332
H           -1.10624212830732       -3.24948888017096        0.78483123452951
H           -1.10663129974046       -3.18843739034332       -0.99313465951770
H           -2.52970943367109       -2.62916201819510       -0.08397540160863
H            1.32067635081811       -2.94642780278730       -0.02914257775704
25
 energy: 0.978390077809 xtb: 6.6.1 (8d0f1dd)
C            3.23171995099787        1.17429882284537        0.13389969795094
N            2.30264396219387        0.10331788847843        0.03133049217377
C            2.60239986687002       -1.28229287845154        0.03757489457781
N            1.38316428652067       -1.94318335802381       -0.01007708091341
C            0.39076139937471       -1.04976587028855       -0.02167340597335
C            0.90176424008786        0.25048234329147        0.00299807762394
C            0.09211790102059        1.39187755519322       -0.01956729026763
O            0.33640591912470        2.62533106182131       -0.02773033918039
N           -1.31040691262370        1.02980412105857       -0.03275961578526
C           -2.16983068973758        2.20841043645377       -0.06217858761261
C           -1.84698167065159       -0.21930312912888       -0.02986150857397
O           -3.04639069964790       -0.44633471090731       -0.02887211400320
N           -0.95462251884273       -1.31554107210044       -0.04570469116297
C           -1.42080002573399       -2.68739107554348       -0.10062905063927
H            3.62544941892223        1.28146813143658        1.15601974469917
H            4.07341763437463        1.02219095607722       -0.55126830998589
H            2.69086386152273        2.08374844129698       -0.13270287314140
H            3.56476113849742       -1.72820218867022        0.03836498252043
H           -1.58101435247516        3.14518156634387       -0.38745696730990
H           -3.05636936984003        1.96625914267868       -0.71219964453995
H           -2.54294300721287        2.45470004805679        0.97255529787459
H           -1.06272032470180       -3.27096862241022        0.75696939151859
H           -1.08313851378899       -3.18569560727793       -1.01759015325166
H           -2.51063948371270       -2.67332013489734       -0.08650096654720
H            1.30260265739789       -2.94604326516051       -0.03590608390384
25
 energy: 1.302293509689 xtb: 6.6.1 (8d0f1dd)
C            3.22278597755911        1.16803667356422        0.14405199217696
N            2.29727178755217        0.09173097185374        0.02473433479184
C            2.58940788870972       -1.28737178047822        0.03968462339393
N            1.37562976835564       -1.94082110189924       -0.01024732546094
C            0.38237532240221       -1.04859307968641       -0.02624999382901
C            0.89836781295797        0.25048835170164        0.00017001116287
C            0.09252600755444        1.39798235573447       -0.01753764003255
O            0.32322624019191        2.62039619171397       -0.03011276736839
N           -1.32039082426601        1.03746897091204       -0.03788805885880
C           -2.16701914758411        2.22283690072941       -0.06511115496123
C           -1.85481863262183       -0.21852721270104       -0.03313612077743
O           -3.04762989962759       -0.45829011345642       -0.01792122559113
N           -0.95754319917603       -1.31542580484032       -0.04894423430167
C           -1.40303943012017       -2.69637930009263       -0.10891198641207
H            3.57804557153880        1.29940624384203        1.17949111725527
H            4.09283695572845        1.00663914713800       -0.50475804671260
H            2.69444910410772        2.07595975125082       -0.16010384413594
H            3.55166330886399       -1.73855915872917        0.02977923824675
H           -1.60287285472136        3.14193911778217       -0.47211821896662
H           -3.10356987814947        1.95434567541006       -0.62184437352011
H           -2.44211179389695        2.54277803097045        0.97928774527882
H           -1.02294232944361       -3.28131650230170        0.73879805694360
H           -1.06571593818072       -3.18008860286081       -1.03413038143144
H           -2.49303720755669       -2.71012049821827       -0.08107588516449
H            1.29432005775856       -2.94548662516675       -0.03887196557828
25
 energy: -0.218246324721 xtb: 6.6.1 (8d0f1dd)
C            3.21144305237861        1.15817169165028        0.15016431530451
N            2.29189424731689        0.07259555747594        0.01539312470327
C            2.56831084061959       -1.27823833759066        0.04503527702213
N            1.37654377458170       -1.93642891336484       -0.00821545754739
C            0.36972068449189       -1.04782671898052       -0.03029041237236
C            0.90080065657634        0.24491584850153       -0.00138616423497
C            0.09205056240214        1.41052644816586       -0.01383399544730
O            0.32415254343813        2.60967484286082       -0.02585162333399
N           -1.32294888992862        1.04703973511411       -0.04825539934631
C           -2.16902728578933        2.23142228294499       -0.06468828681510
C           -1.86481581300415       -0.21654690290089       -0.04038685698249
O           -3.04746586235321       -0.46352411663615       -0.01176067533946
N           -0.95788806885598       -1.31376331448503       -0.05232894379050
C           -1.38872242401357       -2.70068654112363       -0.11330299474148
H            3.51566529207959        1.31352230611862        1.19591694650291
H            4.10764604177041        0.97877068938180       -0.45158070548367
H            2.70528627087026        2.06241512081564       -0.19814464094468
H            3.53369651068282       -1.73271787384616        0.01312464775884
H           -1.66614514372470        3.11410279681045       -0.53075263508489
H           -3.11487843226888        1.96849131716131       -0.50844820971234
H           -2.33462359321620        2.59568107621242        0.93520126265418
H           -0.98372371057851       -3.27709068757155        0.72603169053071
H           -1.05684852073469       -3.16835526484144       -1.04711296708622
H           -2.47541427513676       -2.73988521902980       -0.06795250345100
H            1.29750621033234       -2.94323722067103       -0.03954089661505
25
 energy: 3.135139350711 xtb: 6.6.1 (8d0f1dd)
C            3.20199261688539        1.15215821793839        0.16941635895060
N            2.28943391062277        0.06520001314577        0.00905107682549
C            2.55717401209722       -1.27608124361338        0.05708976793037
N            1.37168647922032       -1.93579414780994       -0.00884121877848
C            0.36091076973701       -1.04618898775431       -0.03818938651702
C            0.89875907689999        0.24535648022685       -0.00757439625721
C            0.09076812505887        1.41583182611339       -0.02368207746448
O            0.30340275501112        2.61925877847593       -0.02582891755551
N           -1.32859026365931        1.04268379456932       -0.06725536346375
C           -2.16218188408557        2.24002776634362       -0.06660546925905
C           -1.87685336363629       -0.21921955694069       -0.04566813665698
O           -3.05664727116933       -0.47316209555426       -0.00618646450523
N           -0.96246604686410       -1.31504889498485       -0.06090018575645
C           -1.37377449724459       -2.70786188284712       -0.12837514310234
H            3.43933489020617        1.33363876592153        1.23268449899630
H            4.13347617399728        0.94724648750021       -0.37411264814549
H            2.71664194834378        2.04692844560368       -0.23553399119505
H            3.52113956191140       -1.73359236118432       -0.00013136574917
H           -1.71038765686782        3.09172814283120       -0.69406890950920
H           -3.21222848756332        1.92931491425664       -0.33884683233320
H           -2.13967468461619        2.72129430473100        0.96236322130392
H           -0.93867789456824       -3.28080232443487        0.69885175685264
H           -1.04588720245043       -3.15707761085750       -1.07298841337021
H           -2.45729494091900       -2.77473399517490       -0.06347953400525
H            1.29215854158902       -2.94207623432934       -0.04415433108791
25
 energy: 1.664998906329 xtb: 6.6.1 (8d0f1dd)
C            3.20164861614818        1.15390443472745        0.17287804077348
N            2.28965048532409        0.07096058319375        0.00523421434458
C            2.55836322179190       -1.27101715588261        0.06633666065457
N            1.37110003906599       -1.93685636052828       -0.00937975642332
C            0.36070124941350       -1.04484012723601       -0.04229470933874
C            0.89768166210417        0.24701093612445       -0.01308001828249
C            0.08664370909085        1.41207666790881       -0.03195167723605
O            0.29681056996307        2.62726520898461       -0.02581484909064
N           -1.32579232727103        1.03362957011829       -0.07654212927591
C           -2.15658756511885        2.23695416909330       -0.05922013107103
C           -1.87941108460488       -0.22142639231280       -0.05052559388503
O           -3.06224139250084       -0.47025836292011       -0.00794614609429
N           -0.96469553340128       -1.31599799798823       -0.06512487424924
C           -1.37632707623424       -2.70732482499099       -0.12936093930116
H            3.41402755533344        1.34139386519637        1.23785724113704
H            4.14090976610762        0.93537198035711       -0.34774864312812
H            2.72787965016078        2.04301340669004       -0.25107380804855
H            3.52151385544666       -1.72678054115050       -0.00772112839598
H           -1.73924254620071        3.07327566551839       -0.71702378148453
H           -3.20466216430162        1.93174848421580       -0.28464218977390
H           -2.09073834048775        2.72601859222106        0.94472661444004
H           -0.93271919498047       -3.27762492395772        0.69481724637593
H           -1.05523797076968       -3.15593292028969       -1.07610068070394
H           -2.45816399750117       -2.77384647241770       -0.05596879985513
H            1.29110348135838       -2.94168888250272       -0.04329626594024
25
 energy: -0.347465679327 xtb: 6.6.1 (8d0f1dd)
C            3.19993748025282        1.16034073459102        0.18323512468570
N            2.28749869736779        0.08445099382170       -0.00328440333904
C            2.56309142028592       -1.26215644444112        0.09305390027961
N            1.37159395858726       -1.93990988269663       -0.00948715566602
C            0.36285668719977       -1.04372398474664       -0.05188946406564
C            0.89370828828583        0.24807013455543       -0.02584608447878
C            0.07470655279358        1.40220913022251       -0.05160693618162
O            0.29856066795639        2.62743899647431       -0.03006023016110
N           -1.32015337935455        1.02132662158026       -0.10232473361822
C           -2.14987399142065        2.23129249276036       -0.04819931840946
C           -1.88004734807751       -0.22328808234930       -0.06198856857344
O           -3.06875283454272       -0.46066780036518       -0.02051402418942
N           -0.96727815093602       -1.31745588784236       -0.07563309870414
C           -1.38432842838675       -2.70506152601745       -0.13127375842354
H            3.36076077203833        1.36579339781649        1.24762810456882
H            4.15377676176847        0.91548721973157       -0.28587014938068
H            2.75653588139816        2.03872369608595       -0.28192090848317
H            3.52501836477312       -1.71174894757895       -0.03145637401926
H           -1.81878023538161        3.02686607751805       -0.76345438317110
H           -3.19995912363382        1.93208468183561       -0.15320645255649
H           -1.96317763142902        2.73626227705297        0.90453708893246
H           -0.92999940667916       -3.27280065589523        0.68668545230693
H           -1.08177444578081       -3.15857395076265       -1.08114605539978
H           -2.46352760564040       -2.76370066383983       -0.04032052313602
H            1.29182171649177       -2.94223002533889       -0.03862315266923
25
 energy: 0.417538305813 xtb: 6.6.1 (8d0f1dd)
C            3.19431242400588        1.16529212918599        0.19924567168344
N            2.28355011151439        0.09127325968966       -0.01329711862755
C            2.56489609886333       -1.25699277475560        0.12373758689511
N            1.37254689737086       -1.94163956297702       -0.00862748070358
C            0.36406015105900       -1.04552921147867       -0.06372634812573
C            0.88998839181869        0.24556464526033       -0.03979753924832
C            0.06219863302365        1.39469590894298       -0.07086849244190
O            0.29747916288527        2.62026684051778       -0.04272244309506
N           -1.32047670366562        1.01469589836376       -0.12780053550540
C           -2.14496618413889        2.22984184393138       -0.03263987421715
C           -1.88077170466791       -0.22729032752375       -0.07762275263548
O           -3.07135084152687       -0.46017745004847       -0.03319240968862
N           -0.96786210074864       -1.32024350886645       -0.08942886632812
C           -1.38890070569762       -2.70574889657982       -0.13705591254087
H            3.29028564854782        1.40130003983051        1.27002077703978
H            4.17560254462087        0.89283453232851       -0.20509001668844
H            2.78698463352236        2.03513262009050       -0.32096147864712
H            3.52485107660899       -1.69966273679933       -0.06636962722242
H           -1.91056030533363        2.98297176181573       -0.85535026434950
H           -3.21399812639893        1.92023921562440        0.02115401498455
H           -1.79609440315472        2.78938900338184        0.87642223558940
H           -0.92197742737150       -3.27321640558420        0.67337622927132
H           -1.10538405088644       -3.16136371131088       -1.09213060623151
H           -2.46675998914591       -2.75926801925901       -0.02684407552610
H            1.29456143683173       -2.94333649160813       -0.03339677749336
25
 energy: -2.070188966090 xtb: 6.6.1 (8d0f1dd)
C            3.19236151818791        1.17394691330380        0.20578672877123
N            2.28084814431499        0.09949373488667       -0.01718956326066
C            2.57478498402535       -1.25576039703389        0.14941293920255
N            1.37881661030502       -1.94376745874115       -0.00623741356241
C            0.37222465038020       -1.05135622788842       -0.07041568625338
C            0.88902812752542        0.23880404577856       -0.04964236569346
C            0.05167534471558        1.38443459669807       -0.08597528480020
O            0.31976883213819        2.59920619357815       -0.06693015469543
N           -1.31890884969136        1.01664487867562       -0.13843918947954
C           -2.14713728138094        2.22517974925653       -0.01797565775103
C           -1.87127085021718       -0.22993158399919       -0.08847925765004
O           -3.06421431488413       -0.45583825120690       -0.05165717779924
N           -0.96279975385451       -1.32222476595872       -0.09875775944785
C           -1.40297106666776       -2.70191906816498       -0.13439550846794
H            3.27099075469438        1.42494299148302        1.26959362002664
H            4.17524254361672        0.89536282107548       -0.17390889806973
H            2.80859834269219        2.04250525916003       -0.32826017566856
H            3.53125792403904       -1.68670829550600       -0.10029584624654
H           -1.97047630403182        2.95495821700993       -0.84178509075990
H           -3.17951645958477        1.92457244290966        0.08665477225315
H           -1.75734432479818        2.77778771554636        0.83762157878549
H           -0.94509207210983       -3.27310742668009        0.67726918782257
H           -1.13500953677578       -3.17196556305667       -1.08754342307015
H           -2.48311426548512       -2.73008990631299       -0.01872216498817
H            1.30447197078253       -2.94614201264087       -0.02269431305001
25
 energy: -2.196480528288 xtb: 6.6.1 (8d0f1dd)
C            3.18728325727849        1.17752647238116        0.21604487103990
N            2.28107349069216        0.09975790220424       -0.01887905407185
C            2.58004494967688       -1.25519187244439        0.17283861516571
N            1.38420650996351       -1.94488952992902       -0.00226980191795
C            0.37667385251281       -1.05645621734038       -0.07821869258115
C            0.89228929578601        0.23253734280322       -0.06069890539359
C            0.05097103740445        1.37934699203517       -0.10681124855842
O            0.33125527196474        2.58762019941642       -0.09527599978146
N           -1.31731309967091        1.01831143110502       -0.15262518602392
C           -2.14227315406983        2.22513906376544       -0.00876319520708
C           -1.86594302859032       -0.23390079495175       -0.10350989419481
O           -3.05862015662242       -0.45858594447678       -0.06459167867670
N           -0.95824090061423       -1.32363785293007       -0.11070235410781
C           -1.41036001989951       -2.70027496014966       -0.13571126117804
H            3.23891180803374        1.44487402802327        1.27727680467791
H            4.17872267798919        0.89137234956959       -0.13200166546467
H            2.82467067116710        2.04205003662886       -0.33780716231771
H            3.52869369568405       -1.67639968359781       -0.13238412680296
H           -2.03181698182276        2.93180870119226       -0.85487442850468
H           -3.18809172067407        1.92073703499217        0.18994337910819
H           -1.68434076723847        2.79950079745691        0.80179785733011
H           -0.95483151900352       -3.27145361822126        0.67700650439228
H           -1.15299841699367       -3.17817914824746       -1.08735841938691
H           -2.49099219851226       -2.71439764338182       -0.01506803356087
H            1.31324011349500       -2.94818648373128       -0.01032302783612
25
 energy: -2.577167792295 xtb: 6.6.1 (8d0f1dd)
C            3.18195383530563        1.17934282866035        0.22242650393512
N            2.28251659719151        0.09682058493840       -0.01853812234239
C            2.58428579785965       -1.25588808908318        0.18430448128926
N            1.38937270606061       -1.94535691482471       -0.00077504825084
C            0.37976191675134       -1.06127713742234       -0.08425769100576
C            0.89679067610227        0.22725095330927       -0.06959062449490
C            0.05489760471317        1.37712504573528       -0.12091498005825
O            0.33807262477273        2.58066267963776       -0.12100516143762
N           -1.31850835929049        1.02010158281135       -0.14799773501431
C           -2.14357474575164        2.22129687683438        0.00469363469201
C           -1.86247229639360       -0.23887481949133       -0.10895745680317
O           -3.05381370287163       -0.46548156365807       -0.06802694818594
N           -0.95374828579379       -1.32470967325343       -0.11996488271308
C           -1.41514047696307       -2.69954075704263       -0.13782029566054
H            3.21727838947069        1.45582724252513        1.28368161821143
H            4.18093330407163        0.89133421750828       -0.10636927458967
H            2.82913041574787        2.04114670083415       -0.34244966948374
H            3.52203029431584       -1.66842598511742       -0.15909584681442
H           -2.07507198719181        2.91904911154718       -0.86495562115818
H           -3.16531720056374        1.91504422753769        0.24182683570724
H           -1.65674304578969        2.82885017953605        0.78657701286827
H           -0.96438212336588       -3.27034932252568        0.67850696621672
H           -1.16155747479769       -3.18279452700956       -1.08678125011185
H           -2.49642632989154       -2.70244424996483       -0.01779440493140
H            1.32194653423777       -2.94968058985006        0.00031185628341
25
 energy: -2.960058623024 xtb: 6.6.1 (8d0f1dd)
C            3.17885819288516        1.17923881272314        0.22588529827794
N            2.28650616149375        0.09166283593833       -0.01357203290088
C            2.58867892105942       -1.25828990385931        0.18757880022574
N            1.39374287383401       -1.94572856310476        0.00206734471376
C            0.38241805179655       -1.06438995044974       -0.08747504528290
C            0.90352853774281        0.22397910577393       -0.07744161280792
C            0.06700097529674        1.37804831275724       -0.13623247360677
O            0.34577140254913        2.57984551889755       -0.15119998472459
N           -1.31570528087945        1.02354944790469       -0.14047049645519
C           -2.14244664295662        2.21781823296799        0.01270736087626
C           -1.85800709582119       -0.24016245162978       -0.11170041621341
O           -3.04831184926410       -0.46822797266921       -0.06886109461460
N           -0.94935761680606       -1.32331019655463       -0.12738144232882
C           -1.41877611300043       -2.69698737602643       -0.13891088549279
H            3.21393661092519        1.45409859226249        1.28628645776450
H            4.17833477195584        0.89786494169891       -0.10129420247497
H            2.82303102241713        2.03942662025624       -0.33656974457382
H            3.51366628627829       -1.66476164653979       -0.17681101677022
H           -2.09191754801049        2.91705253976257       -0.84474862622958
H           -3.15433305011207        1.91002822363089        0.25814990151600
H           -1.67285967039515        2.83133959619429        0.77655617394443
H           -0.97878683446002       -3.26510281037649        0.68573253615042
H           -1.16050824608689       -3.18677048437335       -1.08176575679725
H           -2.50093759791438       -2.69049023278226       -0.02796335130130
H            1.32868840540900       -2.95070259023047        0.01446820525340
25