25
 energy: -42.175521779438 gnorm: 0.005155533050 xtb: 6.6.1 (8d0f1dd)
C            3.23465726574621        1.20503409097683       -0.01414881116095
N            2.33027771326552        0.08846083813464       -0.05461446495022
C            2.66015087212512       -1.21019859730976       -0.07637441545218
N            1.53581104782658       -1.96792976065294       -0.06312155764526
C            0.46073173444611       -1.12240299580870       -0.03037212068300
C            0.95695473861053        0.17766563789211       -0.02549539500927
C            0.10852399657005        1.33422777397532        0.00441333967065
O            0.44093664342371        2.50133152099111       -0.00258908179997
N           -1.25137236591547        0.94330826327874        0.03917976957000
C           -2.24819669996969        2.00071867859130        0.06238565137285
C           -1.69581327820165       -0.33086182147587        0.03843606418077
O           -3.01110907466099       -0.51017852332710        0.04534479797251
N           -0.87552410584725       -1.42531564315036        0.01776654316466
C           -1.35167359104418       -2.70051314784148        0.00145196169744
H            3.73765255610785        1.24966477540950        0.95332562043341
H            3.98583430955490        1.11357254300088       -0.79746173208295
H            2.66189253359467        2.12069763086341       -0.15576413631291
H            3.65737726583165       -1.59738955419576       -0.10350483096559
H           -1.71205674602407        2.94765843386807        0.05644370236025
H           -2.89115250388041        1.92946934910353       -0.81358646111524
H           -2.86002170077054        1.92040492910265        0.95898207347815
H           -2.33392389456397       -2.93277217632895        0.35093574892732
H           -0.66763742773688       -3.49730467277899       -0.16388812668854
H           -3.22534624110703       -1.44307088702226       -0.13248778812059
H            1.51345846671901       -2.97603814369597       -0.06408473294130
