      -----------------------------------------------------------      
     |                   =====================                   |     
     |                           x T B                           |     
     |                   =====================                   |     
     |                         S. Grimme                         |     
     |          Mulliken Center for Theoretical Chemistry        |     
     |                    University of Bonn                     |     
      -----------------------------------------------------------      

   * xtb version 6.6.1 (8d0f1dd) compiled by 'conda@1efc2f54142f' on 2023-08-01

   xtb is free software: you can redistribute it and/or modify it under
   the terms of the GNU Lesser General Public License as published by
   the Free Software Foundation, either version 3 of the License, or
   (at your option) any later version.
   
   xtb is distributed in the hope that it will be useful,
   but WITHOUT ANY WARRANTY; without even the implied warranty of
   MERCHANTABILITY or FITNESS FOR A PARTICULAR PURPOSE.  See the
   GNU Lesser General Public License for more details.
   
   Cite this work as:
   * C. Bannwarth, E. Caldeweyher, S. Ehlert, A. Hansen, P. Pracht,
     J. Seibert, S. Spicher, S. Grimme, WIREs Comput. Mol. Sci., 2020, 11,
     e01493. DOI: 10.1002/wcms.1493
   
   for GFN2-xTB:
   * C. Bannwarth, S. Ehlert and S. Grimme., J. Chem. Theory Comput., 2019,
     15, 1652-1671. DOI: 10.1021/acs.jctc.8b01176
   for GFN1-xTB:
   * S. Grimme, C. Bannwarth, P. Shushkov, J. Chem. Theory Comput., 2017,
     13, 1989-2009. DOI: 10.1021/acs.jctc.7b00118
   for GFN0-xTB:
   * P. Pracht, E. Caldeweyher, S. Ehlert, S. Grimme, ChemRxiv, 2019, preprint.
     DOI: 10.26434/chemrxiv.8326202.v1
   for GFN-FF:
   * S. Spicher and S. Grimme, Angew. Chem. Int. Ed., 2020, 59, 15665-15673.
     DOI: 10.1002/anie.202004239
   
   for ALPB and GBSA implicit solvation:
   * S. Ehlert, M. Stahn, S. Spicher, S. Grimme, J. Chem. Theory Comput.,
     2021, 17, 4250-4261. DOI: 10.1021/acs.jctc.1c00471
   
   for DFT-D4:
   * E. Caldeweyher, C. Bannwarth and S. Grimme, J. Chem. Phys., 2017,
     147, 034112. DOI: 10.1063/1.4993215
   * E. Caldeweyher, S. Ehlert, A. Hansen, H. Neugebauer, S. Spicher,
     C. Bannwarth and S. Grimme, J. Chem. Phys., 2019, 150, 154122.
     DOI: 10.1063/1.5090222
   * E. Caldeweyher, J.-M. Mewes, S. Ehlert and S. Grimme, Phys. Chem. Chem. Phys.
     2020, 22, 8499-8512. DOI: 10.1039/D0CP00502A
   
   for sTDA-xTB:
   * S. Grimme and C. Bannwarth, J. Chem. Phys., 2016, 145, 054103.
     DOI: 10.1063/1.4959605
   
   in the mass-spec context:
   * V. Asgeirsson, C. Bauer and S. Grimme, Chem. Sci., 2017, 8, 4879.
     DOI: 10.1039/c7sc00601b
   * J. Koopman and S. Grimme, ACS Omega 2019, 4, 12, 15120-15133.
     DOI: 10.1021/acsomega.9b02011
   
   for metadynamics refer to:
   * S. Grimme, J. Chem. Theory Comput., 2019, 155, 2847-2862
     DOI: 10.1021/acs.jctc.9b00143
   
   for SPH calculations refer to:
   * S. Spicher and S. Grimme, J. Chem. Theory Comput., 2021, 17, 1701-1714
     DOI: 10.1021/acs.jctc.0c01306
   
   with help from (in alphabetical order)
   P. Atkinson, C. Bannwarth, F. Bohle, G. Brandenburg, E. Caldeweyher
   M. Checinski, S. Dohm, S. Ehlert, S. Ehrlich, I. Gerasimov, C. Hölzer
   A. Katbashev, J. Koopman, C. Lavigne, S. Lehtola, F. März, M. Müller,
   F. Musil, H. Neugebauer, J. Pisarek, C. Plett, P. Pracht, F. Pultar,
   J. Seibert, P. Shushkov, S. Spicher, M. Stahn, M. Steiner, T. Strunk,
   J. Stückrath, T. Rose, and J. Unsleber
   
 * started run on 2024/06/05 at 19:57:50.074     

           -------------------------------------------------
          |                Calculation Setup                |
           -------------------------------------------------

          program call               : xtb xtbopt.xyz --opt crude --input .xc2 --gfn2
          hostname                   : n-62-11-68
          coordinate file            : xtbopt.xyz
          omp threads                :                     1

   ID    Z sym.   atoms
    1    6 C      1, 3, 5-7, 10, 11, 14
    2    7 N      2, 4, 9, 13
    3    8 O      8, 12
    4    1 H      15-25
########################################################################
[WARNING] Please study the warnings concerning your input carefully
-1- readin_getIntValue: could not parse ''
########################################################################

           -------------------------------------------------
          |                 G F N 2 - x T B                 |
           -------------------------------------------------

        Reference                      10.1021/acs.jctc.8b01176
      * Hamiltonian:
        H0-scaling (s, p, d)           1.850000    2.230000    2.230000
        zeta-weighting                 0.500000
      * Dispersion:
        s8                             2.700000
        a1                             0.520000
        a2                             5.000000
        s9                             5.000000
      * Repulsion:
        kExp                           1.500000    1.000000
        rExp                           1.000000
      * Coulomb:
        alpha                          2.000000
        third order                    shell-resolved
        anisotropic                    true
        a3                             3.000000
        a5                             4.000000
        cn-shift                       1.200000
        cn-exp                         4.000000
        max-rad                        5.000000

q/qsh data taken from xtbrestart
CAMM data taken from xtbrestart

          ...................................................
          :                      SETUP                      :
          :.................................................:
          :  # basis functions                  67          :
          :  # atomic orbitals                  67          :
          :  # shells                           39          :
          :  # electrons                        74          :
          :  max. iterations                   250          :
          :  Hamiltonian                  GFN2-xTB          :
          :  restarted?                       true          :
          :  GBSA solvation                  false          :
          :  PC potential                    false          :
          :  electronic temp.         5000.0000000     K    :
          :  accuracy                    1.0000000          :
          :  -> integral cutoff          0.2500000E+02      :
          :  -> integral neglect         0.1000000E-07      :
          :  -> SCF convergence          0.1000000E-05 Eh   :
          :  -> wf. convergence          0.1000000E-03 e    :
          :  Broyden damping             0.4000000          :
          ...................................................

 iter      E             dE          RMSdq      gap      omega  full diag
   1    -42.7085399 -0.427085E+02  0.237E-05    2.26       0.0  T
   2    -42.7085399 -0.304112E-11  0.140E-05    2.26    1432.5  T
   3    -42.7085399 -0.121503E-11  0.984E-06    2.26    2031.8  T

   *** convergence criteria satisfied after 3 iterations ***

         #    Occupation            Energy/Eh            Energy/eV
      -------------------------------------------------------------
         1        2.0000           -0.8770498             -23.8657
       ...           ...                  ...                  ...
        31        1.9992           -0.6172651             -16.7966
        32        1.9951           -0.5890771             -16.0296
        33        1.9947           -0.5880337             -16.0012
        34        1.9797           -0.5665413             -15.4164
        35        1.9376           -0.5484406             -14.9238
        36        1.9214           -0.5446670             -14.8211
        37        1.9090           -0.5422337             -14.7549 (HOMO)
        38        0.1981           -0.4590811             -12.4922 (LUMO)
        39        0.0649           -0.4402821             -11.9807
        40        0.0016           -0.3811913             -10.3727
        41        0.0005           -0.3632229              -9.8838
        42        0.0000           -0.2760179              -7.5108
       ...           ...                  ...                  ...
        67                          0.6916912              18.8219
      -------------------------------------------------------------
                  HL-Gap            0.0831525 Eh            2.2627 eV
             Fermi-level           -0.4940442 Eh          -13.4436 eV

 SCC (total)                   0 d,  0 h,  0 min,  0.021 sec
 SCC setup                      ...        0 min,  0.000 sec (  1.007%)
 Dispersion                     ...        0 min,  0.000 sec (  1.134%)
 classical contributions        ...        0 min,  0.000 sec (  0.323%)
 integral evaluation            ...        0 min,  0.004 sec ( 19.699%)
 iterations                     ...        0 min,  0.005 sec ( 25.366%)
 molecular gradient             ...        0 min,  0.011 sec ( 51.772%)
 printout                       ...        0 min,  0.000 sec (  0.666%)

         :::::::::::::::::::::::::::::::::::::::::::::::::::::
         ::                     SUMMARY                     ::
         :::::::::::::::::::::::::::::::::::::::::::::::::::::
         :: total energy             -42.158884888521 Eh    ::
         :: gradient norm              0.022551351847 Eh/a0 ::
         :: HOMO-LUMO gap              2.262695525338 eV    ::
         ::.................................................::
         :: SCC energy               -42.708539925676 Eh    ::
         :: -> isotropic ES            0.146750662262 Eh    ::
         :: -> anisotropic ES         -0.010460524972 Eh    ::
         :: -> anisotropic XC          0.019556457222 Eh    ::
         :: -> dispersion             -0.021024539955 Eh    ::
         :: repulsion energy           0.549622633261 Eh    ::
         :: add. restraining           0.000000000000 Eh    ::
         :: total charge               1.000000000005 e     ::
         :::::::::::::::::::::::::::::::::::::::::::::::::::::

      ----------------------------------------------------------- 
     |                   =====================                   |
     |                        A N C O P T                        |
     |                   =====================                   |
     |               Approximate Normal Coordinate               |
     |                Rational Function Optimizer                |
      ----------------------------------------------------------- 

          ...................................................
          :                      SETUP                      :
          :.................................................:
          :   optimization level             crude          :
          :   max. optcycles                   200          :
          :   ANC micro-cycles                  20          :
          :   degrees of freedom                69          :
          :.................................................:
          :   RF solver                   davidson          :
          :   write xtbopt.log                true          :
          :   linear?                        false          :
          :   energy convergence         0.5000000E-03 Eh   :
          :   grad. convergence          0.1000000E-01 Eh/α :
          :   maxmium RF displ.          1.0000000          :
          :   Hlow (freq-cutoff)         0.1000000E-01      :
          :   Hmax (freq-cutoff)         5.0000000          :
          :   S6 in model hess.         20.0000000          :
          ...................................................

generating ANC from model Hessian ...
Using Lindh-Hessian (1995)
 Shifting diagonal of input Hessian by    9.3693134667798446E-003
 Lowest  eigenvalues of input Hessian
    0.000000    0.000000    0.000000    0.000000    0.000000    0.000000
    0.010000    0.010144    0.010537    0.011688    0.012780    0.014757
    0.016841    0.018393    0.021622    0.022212    0.023398    0.027933
 Highest eigenvalues
    2.020767    2.051477    2.167923    2.359353    2.497206    2.749130


........................................................................
.............................. CYCLE    1 ..............................
........................................................................

 iter      E             dE          RMSdq      gap      omega  full diag
   1    -42.7085399 -0.427085E+02  0.522E-06    2.26       0.0  T
   2    -42.7085399  0.675016E-12  0.655E-06    2.26    3052.3  T
   3    -42.7085399 -0.172662E-11  0.715E-07    2.26   27963.8  T
     SCC iter.                  ...        0 min,  0.004 sec
     gradient                   ...        0 min,  0.011 sec
 * total energy  :   -42.1588849 Eh     change       -0.9947598E-12 Eh
   gradient norm :     0.0225514 Eh/α   predicted     0.0000000E+00 (-100.00%)
   displ. norm   :     0.3238652 α      lambda       -0.4178508E-02
   maximum displ.:     0.1685288 α      in ANC's #13, #5, #16, ...

........................................................................
.............................. CYCLE    2 ..............................
........................................................................

 iter      E             dE          RMSdq      gap      omega  full diag
   1    -42.7155549 -0.427156E+02  0.227E-01    2.28       0.0  T
   2    -42.7156007 -0.458127E-04  0.149E-01    2.31       1.0  T
   3    -42.7154646  0.136083E-03  0.890E-02    2.26       1.0  T
   4    -42.7156413 -0.176682E-03  0.263E-02    2.31       1.0  T
   5    -42.7156612 -0.199179E-04  0.784E-03    2.29       2.6  T
   6    -42.7156628 -0.160101E-05  0.274E-03    2.29       7.3  T
   7    -42.7156629 -0.624434E-07  0.115E-03    2.29      17.3  T
   8    -42.7156629 -0.116696E-07  0.239E-04    2.29      83.5  T
   9    -42.7156629 -0.197986E-09  0.127E-04    2.29     156.9  T
     SCC iter.                  ...        0 min,  0.011 sec
     gradient                   ...        0 min,  0.011 sec
 * total energy  :   -42.1621631 Eh     change       -0.3278218E-02 Eh
   gradient norm :     0.0137597 Eh/α   predicted    -0.2308424E-02 ( -29.58%)
   displ. norm   :     0.6511903 α      lambda       -0.5829837E-02
   maximum displ.:     0.3244301 α      in ANC's #7, #1, #13, ...

........................................................................
.............................. CYCLE    3 ..............................
........................................................................

 iter      E             dE          RMSdq      gap      omega  full diag
   1    -42.6885476 -0.426885E+02  0.611E-01    1.67       0.0  T
   2    -42.6804906  0.805700E-02  0.779E-01    2.73       1.0  T
   3    -42.6990798 -0.185893E-01  0.255E-01    2.14       1.0  T
   4    -42.6991677 -0.878803E-04  0.140E-01    2.05       1.0  T
   5    -42.6994107 -0.242984E-03  0.429E-02    2.04       1.0  T
   6    -42.6994870 -0.763201E-04  0.862E-03    2.07       2.3  T
   7    -42.6994871 -0.982312E-07  0.563E-03    2.08       3.6  T
   8    -42.6994875 -0.418520E-06  0.179E-03    2.07      11.1  T
   9    -42.6994876 -0.365734E-07  0.474E-04    2.07      42.2  T
  10    -42.6994876 -0.361688E-08  0.279E-04    2.07      71.7  T
     SCC iter.                  ...        0 min,  0.012 sec
     gradient                   ...        0 min,  0.011 sec
 * total energy  :   -42.1594856 Eh     change        0.2677482E-02 Eh
   gradient norm :     0.0589423 Eh/α   predicted    -0.4150986E-02 (-255.03%)
   displ. norm   :     0.3332511 α      lambda       -0.1216516E-01
   maximum displ.:     0.3029104 α      in ANC's #5, #7, #4, ...

........................................................................
.............................. CYCLE    4 ..............................
........................................................................

 iter      E             dE          RMSdq      gap      omega  full diag
   1    -42.7173647 -0.427174E+02  0.425E-01    2.56       0.0  T
   2    -42.7155499  0.181487E-02  0.401E-01    1.98       1.0  T
   3    -42.7199897 -0.443985E-02  0.192E-01    2.37       1.0  T
   4    -42.7203502 -0.360506E-03  0.739E-02    2.27       1.0  T
   5    -42.7204191 -0.689079E-04  0.115E-02    2.26       1.7  T
   6    -42.7204224 -0.332420E-05  0.577E-03    2.27       3.5  T
   7    -42.7204225 -0.220615E-07  0.316E-03    2.27       6.3  T
   8    -42.7204227 -0.237329E-06  0.107E-03    2.27      18.6  T
   9    -42.7204227 -0.257210E-07  0.240E-04    2.27      83.3  T
  10    -42.7204227 -0.322316E-09  0.649E-05    2.27     308.3  T
     SCC iter.                  ...        0 min,  0.012 sec
     gradient                   ...        0 min,  0.011 sec
 * total energy  :   -42.1653715 Eh     change       -0.5885923E-02 Eh
   gradient norm :     0.0164001 Eh/α   predicted    -0.6758086E-02 (  14.82%)
   displ. norm   :     0.2867076 α      lambda       -0.9864306E-03
   maximum displ.:     0.2163038 α      in ANC's #1, #5, #7, ...

........................................................................
.............................. CYCLE    5 ..............................
........................................................................

 iter      E             dE          RMSdq      gap      omega  full diag
   1    -42.7214206 -0.427214E+02  0.182E-01    2.22       0.0  T
   2    -42.7214251 -0.448567E-05  0.107E-01    2.24       1.0  T
   3    -42.7213691  0.559113E-04  0.399E-02    2.20       1.0  T
   4    -42.7214278 -0.586478E-04  0.968E-03    2.23       2.1  T
   5    -42.7214305 -0.272003E-05  0.235E-03    2.23       8.5  T
   6    -42.7214305 -0.200325E-07  0.110E-03    2.23      18.2  T
   7    -42.7214305 -0.114948E-07  0.357E-04    2.23      56.0  T
   8    -42.7214305 -0.225150E-08  0.137E-04    2.23     145.8  T
     SCC iter.                  ...        0 min,  0.010 sec
     gradient                   ...        0 min,  0.011 sec
 * total energy  :   -42.1661994 Eh     change       -0.8278470E-03 Eh
   gradient norm :     0.0145515 Eh/α   predicted    -0.5337601E-03 ( -35.52%)
   displ. norm   :     0.4988730 α      lambda       -0.1399234E-02
   maximum displ.:     0.3778521 α      in ANC's #1, #5, #7, ...

........................................................................
.............................. CYCLE    6 ..............................
........................................................................

 iter      E             dE          RMSdq      gap      omega  full diag
   1    -42.7206974 -0.427207E+02  0.276E-01    2.09       0.0  T
   2    -42.7206871  0.103434E-04  0.165E-01    2.18       1.0  T
   3    -42.7199664  0.720645E-03  0.153E-01    2.02       1.0  T
   4    -42.7208040 -0.837622E-03  0.238E-02    2.14       1.0  T
   5    -42.7208185 -0.144626E-04  0.422E-03    2.14       4.7  T
   6    -42.7208186 -0.111325E-06  0.194E-03    2.14      10.3  T
   7    -42.7208186 -0.169386E-07  0.577E-04    2.14      34.7  T
   8    -42.7208186 -0.354181E-08  0.255E-04    2.14      78.4  T
     SCC iter.                  ...        0 min,  0.010 sec
     gradient                   ...        0 min,  0.011 sec
 * total energy  :   -42.1670261 Eh     change       -0.8266954E-03 Eh
   gradient norm :     0.0141399 Eh/α   predicted    -0.8737343E-03 (   5.69%)
   displ. norm   :     0.2231250 α      lambda       -0.4301107E-03
   maximum displ.:     0.1408783 α      in ANC's #5, #1, #7, ...

........................................................................
.............................. CYCLE    7 ..............................
........................................................................

 iter      E             dE          RMSdq      gap      omega  full diag
   1    -42.7210844 -0.427211E+02  0.709E-02    2.08       0.0  T
   2    -42.7210654  0.189334E-04  0.532E-02    2.14       1.0  T
   3    -42.7211182 -0.527602E-04  0.359E-02    2.09       1.0  T
   4    -42.7211376 -0.193818E-04  0.113E-02    2.10       1.8  T
   5    -42.7211405 -0.290624E-05  0.240E-03    2.11       8.3  T
   6    -42.7211405 -0.490522E-07  0.136E-03    2.11      14.8  T
   7    -42.7211405 -0.110363E-07  0.368E-04    2.11      54.4  T
   8    -42.7211405 -0.311159E-08  0.128E-04    2.11     156.2  T
     SCC iter.                  ...        0 min,  0.010 sec
     gradient                   ...        0 min,  0.011 sec
 * total energy  :   -42.1672630 Eh     change       -0.2369380E-03 Eh
   gradient norm :     0.0082464 Eh/α   predicted    -0.2257629E-03 (  -4.72%)
   displ. norm   :     0.1216351 α      lambda       -0.2350861E-03
   maximum displ.:     0.0984300 α      in ANC's #1, #5, #10, ...

   *** GEOMETRY OPTIMIZATION CONVERGED AFTER 7 ITERATIONS ***

------------------------------------------------------------------------
 total energy gain   :        -0.0083781 Eh       -5.2574 kcal/mol
 total RMSD          :         0.3727730 a0        0.1973 Å
 total power (kW/mol):        -3.1424004 (step) -116.5666 (real)
------------------------------------------------------------------------

 ANCopt (total)                0 d,  0 h,  0 min,  0.189 sec
 optimizer setup                ...        0 min,  0.001 sec (  0.314%)
 model hessian                  ...        0 min,  0.005 sec (  2.746%)
 ANC generation                 ...        0 min,  0.001 sec (  0.385%)
 coordinate transformation      ...        0 min,  0.000 sec (  0.031%)
 single point calculation       ...        0 min,  0.179 sec ( 94.999%)
 optimization log               ...        0 min,  0.002 sec (  0.862%)
 hessian update                 ...        0 min,  0.000 sec (  0.044%)
 rational function              ...        0 min,  0.001 sec (  0.397%)

================
 final structure:
================
25
 xtb: 6.6.1 (8d0f1dd)
C            4.39727270431445        0.37630138314107       -0.01800067067642
N            3.39477206326230       -0.37482011305906       -0.15477038902996
C            2.71736786638926       -1.43390625547188        0.05385296755768
N            1.38014004642959       -1.55872845672506        0.03569630492331
C            0.40404364004024       -0.56460640818148        0.00098994802743
C            0.69171693142080        0.76194607746682       -0.00121930105908
C           -0.36000742459317        1.75870751671908       -0.00614731805815
O           -0.16317606025014        2.95205513049059       -0.00120524112519
N           -1.65035618184016        1.23227642884703       -0.00566669391127
C           -2.78048862841404        2.14622070324506        0.00908542783918
C           -1.96810293926378       -0.10162265411358       -0.01607468643259
O           -3.10457486264134       -0.49589199675709       -0.02196846544264
N           -0.88997347739038       -1.00540719409587       -0.01710477690141
C           -1.23809280257144       -2.41473960726687       -0.03923050717666
H            4.81242841835520        0.61076787441559        0.95589126531427
H            4.80754616910492        0.87062844322580       -0.89379055947772
H            1.69824201075362        1.13516499302181        0.01024444300750
H            3.25807481308306       -2.37620273617470        0.15186318202097
H           -2.39413027211151        3.16285476037336        0.02629157536011
H           -3.39435863247314        1.98413700478068       -0.87717238096556
H           -3.39372138856144        1.95362149622147        0.88968973557584
H           -0.91371376814524       -2.92158972334825        0.87191265242510
H           -0.84125895234764       -2.90778463459476       -0.92828941407462
H           -2.32783846991238       -2.46604300686001       -0.08027318630099
H            1.01862071146366       -2.50510048370020        0.08656770648048

 Bond Distances (Angstroems)
 ---------------------------
C1-N2=1.2601         C1-H15=1.0843        C1-H16=1.0861        N2-C1=1.2601         N2-C3=1.2744         C3-N2=1.2744         
C3-N4=1.3432         C3-H18=1.0908        N4-C3=1.3432         N4-C5=1.3936         N4-H25=1.0143        C5-N4=1.3936         
C5-C6=1.3574         C5-N13=1.3672        C6-C5=1.3574         C6-C7=1.4490         C6-H17=1.0736        C7-C6=1.4490         
C7-O8=1.2095         C7-N9=1.3936         O8-C7=1.2095         N9-C7=1.3936         N9-C10=1.4535        N9-C11=1.3713        
C10-N9=1.4535        C10-H19=1.0877       C10-H20=1.0902       C10-H21=1.0902       C11-N9=1.3713        C11-O12=1.2029       
C11-N13=1.4068       O12-C11=1.2029       N13-C5=1.3672        N13-C11=1.4068       N13-C14=1.4519       C14-N13=1.4519       
C14-H22=1.0919       C14-H23=1.0913       C14-H24=1.0917       H15-C1=1.0843        H16-C1=1.0861        H17-C6=1.0736        
H18-C3=1.0908        H19-C10=1.0877       H20-C10=1.0902       H21-C10=1.0902       H22-C14=1.0919       H23-C14=1.0913       
H24-C14=1.0917       H25-N4=1.0143        
 C  H  Rav=1.0878 sigma=0.0053  Rmin=1.0736  Rmax=1.0919    10
 C  C  Rav=1.4032 sigma=0.0458  Rmin=1.3574  Rmax=1.4490     2
 N  H  Rav=1.0143 sigma=0.0000  Rmin=1.0143  Rmax=1.0143     1
 N  C  Rav=1.3716 sigma=0.0617  Rmin=1.2601  Rmax=1.4535    10
 O  C  Rav=1.2062 sigma=0.0033  Rmin=1.2029  Rmax=1.2095     2

 selected bond angles (degree)
 --------------------
H15-C1-N2=122.07               H16-C1-N2=118.97               H16-C1-H15=118.76              C3-N2-C1=154.22                
N4-C3-N2=127.17                H18-C3-N2=117.98               H18-C3-N4=114.48               C5-N4-C3=129.15                
H25-N4-C3=116.16               H25-N4-C5=114.65               C6-C5-N4=123.28                N13-C5-N4=115.67               
N13-C5-C6=121.04               C7-C6-C5=121.23                H17-C6-C5=122.58               H17-C6-C7=116.19               
O8-C7-C6=124.10                N9-C7-C6=114.34                N9-C7-O8=121.56                C10-N9-C7=118.84               
C11-N9-C7=125.59               C11-N9-C10=115.57              H19-C10-N9=108.16              H20-C10-N9=109.64              
H20-C10-H19=110.60             H21-C10-N9=109.54              H21-C10-H19=110.62             H21-C10-H20=108.28             

 selected dihedral angles (degree)
 ---------------------------------
C3-N2-C1-H15=311.03           C3-N2-C1-H16=136.27           N4-C3-N2-C1=151.60            H18-C3-N2-C1=324.23           
C5-N4-C3-N2=348.75            C5-N4-C3-H18=175.90           H25-N4-C3-N2=171.13           H25-N4-C3-H18=358.27          
C6-C5-N4-C3=359.01            C6-C5-N4-H25=176.67           N13-C5-N4-C3=179.68           N13-C5-N4-H25=357.34          
C7-C6-C5-N4=181.47            C7-C6-C5-N13=  0.77           H17-C6-C5-N4=  0.86           H17-C6-C5-N13=180.16          
O8-C7-C6-C5=179.59            O8-C7-C6-H17=  0.17           N9-C7-C6-C5=  0.12            N9-C7-C6-H17=180.70           
C10-N9-C7-C6=179.12           C10-N9-C7-O8=359.63           C11-N9-C7-C6=359.23           C11-N9-C7-O8=179.74           
H19-C10-N9-C7=359.53          H19-C10-N9-C11=179.44         H20-C10-N9-C7=120.21          H20-C10-N9-C11=300.12         
H21-C10-N9-C7=238.89          H21-C10-N9-C11= 58.80         
           -------------------------------------------------
          |                Final Singlepoint                |
           -------------------------------------------------

          ...................................................
          :                      SETUP                      :
          :.................................................:
          :  # basis functions                  67          :
          :  # atomic orbitals                  67          :
          :  # shells                           39          :
          :  # electrons                        74          :
          :  max. iterations                   250          :
          :  Hamiltonian                  GFN2-xTB          :
          :  restarted?                      false          :
          :  GBSA solvation                  false          :
          :  PC potential                    false          :
          :  electronic temp.         5000.0000000     K    :
          :  accuracy                    1.0000000          :
          :  -> integral cutoff          0.2500000E+02      :
          :  -> integral neglect         0.1000000E-07      :
          :  -> SCF convergence          0.1000000E-05 Eh   :
          :  -> wf. convergence          0.1000000E-03 e    :
          :  Broyden damping             0.4000000          :
          ...................................................

 iter      E             dE          RMSdq      gap      omega  full diag
   1    -42.7211405 -0.427211E+02  0.563E-05    2.11       0.0  T
   2    -42.7211405 -0.780176E-11  0.332E-05    2.11     603.1  T
   3    -42.7211405 -0.321876E-11  0.261E-05    2.11     765.0  T

   *** convergence criteria satisfied after 3 iterations ***

         #    Occupation            Energy/Eh            Energy/eV
      -------------------------------------------------------------
         1        2.0000           -0.8817471             -23.9936
       ...           ...                  ...                  ...
        31        1.9989           -0.6178327             -16.8121
        32        1.9942           -0.5911738             -16.0867
        33        1.9933           -0.5888289             -16.0228
        34        1.9775           -0.5695046             -15.4970
        35        1.9318           -0.5515515             -15.0085
        36        1.9120           -0.5473633             -14.8945
        37        1.9013           -0.5454458             -14.8423 (HOMO)
        38        0.2536           -0.4680591             -12.7365 (LUMO)
        39        0.0377           -0.4360529             -11.8656
        40        0.0013           -0.3819338             -10.3929
        41        0.0004           -0.3655151              -9.9462
        42        0.0000           -0.2758081              -7.5051
       ...           ...                  ...                  ...
        67                          0.6043808              16.4460
      -------------------------------------------------------------
                  HL-Gap            0.0773867 Eh            2.1058 eV
             Fermi-level           -0.4986118 Eh          -13.5679 eV

 SCC (total)                   0 d,  0 h,  0 min,  0.020 sec
 SCC setup                      ...        0 min,  0.000 sec (  0.901%)
 Dispersion                     ...        0 min,  0.000 sec (  0.785%)
 classical contributions        ...        0 min,  0.000 sec (  0.323%)
 integral evaluation            ...        0 min,  0.004 sec ( 20.175%)
 iterations                     ...        0 min,  0.004 sec ( 21.817%)
 molecular gradient             ...        0 min,  0.011 sec ( 55.395%)
 printout                       ...        0 min,  0.000 sec (  0.567%)

         :::::::::::::::::::::::::::::::::::::::::::::::::::::
         ::                     SUMMARY                     ::
         :::::::::::::::::::::::::::::::::::::::::::::::::::::
         :: total energy             -42.167263028477 Eh    ::
         :: gradient norm              0.008246782856 Eh/a0 ::
         :: HOMO-LUMO gap              2.105798671527 eV    ::
         ::.................................................::
         :: SCC energy               -42.721140540016 Eh    ::
         :: -> isotropic ES            0.145645614464 Eh    ::
         :: -> anisotropic ES         -0.009190596368 Eh    ::
         :: -> anisotropic XC          0.018633738858 Eh    ::
         :: -> dispersion             -0.021464629926 Eh    ::
         :: repulsion energy           0.553834725799 Eh    ::
         :: add. restraining           0.000000000000 Eh    ::
         :: total charge               1.000000000229 e     ::
         :::::::::::::::::::::::::::::::::::::::::::::::::::::

           -------------------------------------------------
          |                Property Printout                |
           -------------------------------------------------

    * Orbital Energies and Occupations

         #    Occupation            Energy/Eh            Energy/eV
      -------------------------------------------------------------
         1        2.0000           -0.8817471             -23.9936
       ...           ...                  ...                  ...
        25        1.9999           -0.6615563             -18.0019
        26        1.9999           -0.6567104             -17.8700
        27        1.9998           -0.6438219             -17.5193
        28        1.9997           -0.6399096             -17.4128
        29        1.9996           -0.6327203             -17.2172
        30        1.9991           -0.6198711             -16.8676
        31        1.9989           -0.6178327             -16.8121
        32        1.9942           -0.5911738             -16.0867
        33        1.9933           -0.5888289             -16.0228
        34        1.9775           -0.5695046             -15.4970
        35        1.9318           -0.5515515             -15.0085
        36        1.9120           -0.5473633             -14.8945
        37        1.9013           -0.5454458             -14.8423 (HOMO)
        38        0.2536           -0.4680591             -12.7365 (LUMO)
        39        0.0377           -0.4360529             -11.8656
        40        0.0013           -0.3819338             -10.3929
        41        0.0004           -0.3655151              -9.9462
        42        0.0000           -0.2758081              -7.5051
        43                         -0.1930113              -5.2521
        44                         -0.1708008              -4.6477
        45                         -0.1217580              -3.3132
        46                         -0.1069437              -2.9101
        47                         -0.0787654              -2.1433
        48                         -0.0409517              -1.1144
       ...                                ...                  ...
        67                          0.6043808              16.4460
      -------------------------------------------------------------
                  HL-Gap            0.0773867 Eh            2.1058 eV
             Fermi-level           -0.4986118 Eh          -13.5679 eV

     #   Z          covCN         q      C6AA      α(0)
     1   6 C        2.767     0.015    27.664     8.614
     2   7 N        1.826    -0.010    22.149     6.974
     3   6 C        2.757     0.110    25.546     8.277
     4   7 N        2.696    -0.086    22.926     7.111
     5   6 C        2.834     0.128    25.179     8.223
     6   6 C        2.908    -0.110    30.783     9.098
     7   6 C        2.768     0.277    22.316     7.737
     8   8 O        0.859    -0.341    20.545     6.077
     9   7 N        2.742    -0.072    22.639     7.067
    10   6 C        3.708    -0.060    21.804     6.674
    11   6 C        2.725     0.320    21.564     7.602
    12   8 O        0.860    -0.368    21.052     6.152
    13   7 N        2.748    -0.063    22.467     7.040
    14   6 C        3.698    -0.076    22.136     6.729
    15   1 H        0.925     0.134     1.508     1.920
    16   1 H        0.925     0.143     1.438     1.875
    17   1 H        0.926     0.096     1.822     2.111
    18   1 H        0.924     0.124     1.584     1.968
    19   1 H        0.925     0.115     1.655     2.012
    20   1 H        0.924     0.102     1.767     2.079
    21   1 H        0.924     0.101     1.772     2.082
    22   1 H        0.924     0.078     1.997     2.210
    23   1 H        0.924     0.079     1.986     2.204
    24   1 H        0.924     0.134     1.506     1.919
    25   1 H        0.860     0.232     0.958     1.534

 Mol. C6AA /au·bohr⁶  :       6653.371996
 Mol. C8AA /au·bohr⁸  :     153010.306975
 Mol. α(0) /au        :        125.287162


Wiberg/Mayer (AO) data.
largest (>0.10) Wiberg bond orders for each atom

 ---------------------------------------------------------------------------
     #   Z sym  total        # sym  WBO       # sym  WBO       # sym  WBO
 ---------------------------------------------------------------------------
     1   6 C    3.702 --     2 N    1.731    16 H    0.932    15 H    0.925
     2   7 N    3.475 --     1 C    1.731     3 C    1.557     4 N    0.123
     3   6 C    3.888 --     2 N    1.557     4 N    1.275    18 H    0.910
     4   7 N    3.534 --     3 C    1.275     5 C    1.087    25 H    0.902
                             2 N    0.123
     5   6 C    3.930 --     6 C    1.528    13 N    1.179     4 N    1.087
     6   6 C    3.864 --     5 C    1.528     7 C    1.093    17 H    0.951
     7   6 C    3.947 --     8 O    1.683     6 C    1.093     9 N    1.088
     8   8 O    1.979 --     7 C    1.683     9 N    0.125
     9   7 N    3.525 --    11 C    1.142     7 C    1.088    10 C    0.975
                            12 O    0.130     8 O    0.125
    10   6 C    3.898 --     9 N    0.975    19 H    0.965    21 H    0.956
                            20 H    0.956
    11   6 C    3.959 --    12 O    1.677     9 N    1.142    13 N    1.052
    12   8 O    2.016 --    11 C    1.677     9 N    0.130    13 N    0.118
    13   7 N    3.520 --     5 C    1.179    11 C    1.052    14 C    0.983
                            12 O    0.118
    14   6 C    3.928 --    13 N    0.983    23 H    0.966    22 H    0.965
                            24 H    0.955
    15   1 H    0.974 --     1 C    0.925
    16   1 H    0.975 --     1 C    0.932
    17   1 H    0.989 --     6 C    0.951
    18   1 H    0.969 --     3 C    0.910
    19   1 H    0.983 --    10 C    0.965
    20   1 H    0.975 --    10 C    0.956
    21   1 H    0.975 --    10 C    0.956
    22   1 H    0.988 --    14 C    0.965
    23   1 H    0.988 --    14 C    0.966
    24   1 H    0.981 --    14 C    0.955
    25   1 H    0.946 --     4 N    0.902
 ---------------------------------------------------------------------------

Topologies differ in total number of bonds
Writing topology from bond orders to xtbtopo.mol

molecular dipole:
                 x           y           z       tot (Debye)
 q only:        3.423      -2.070       0.070
   full:        3.729      -2.438       0.154      11.330
molecular quadrupole (traceless):
                xx          xy          yy          xz          yz          zz
 q only:       27.803     -10.801      -6.166       0.510      -0.516     -21.637
  q+dip:       26.401     -11.246      -7.330       1.333      -1.003     -19.072
   full:       25.629     -12.374      -8.094       1.216      -0.746     -17.535

           -------------------------------------------------
          |                Geometry Summary                 |
           -------------------------------------------------

      molecular mass/u    :      195.1988581
   center of mass at/Å    :        0.0192111       0.0934968      -0.0120085
  moments of inertia/u·Å² :        0.4456854E+03   0.1010770E+04   0.1445727E+04
rotational constants/cm⁻¹ :        0.3782406E-01   0.1667802E-01   0.1166032E-01

 * 24 selected distances

     #   Z          #   Z                                           value/Å
     1   6 C        2   7 N                                       1.2601180
     2   7 N        3   6 C                                       1.2743877
     3   6 C        4   7 N                                       1.3431637
     4   7 N        5   6 C                                       1.3936455
     5   6 C        6   6 C                                       1.3573882
     7   6 C        8   8 O                                       1.2094816
     7   6 C        9   7 N                                       1.3936033
     9   7 N       10   6 C                                       1.4535169 (max)
     9   7 N       11   6 C                                       1.3712616
    11   6 C       12   8 O                                       1.2029346
     5   6 C       13   7 N                                       1.3671552
    11   6 C       13   7 N                                       1.4068373
    13   7 N       14   6 C                                       1.4518591
     1   6 C       15   1 H                                       1.0843406
     1   6 C       16   1 H                                       1.0861361
     6   6 C       17   1 H                                       1.0735533
     3   6 C       18   1 H                                       1.0908221
    10   6 C       19   1 H                                       1.0877104
    10   6 C       20   1 H                                       1.0902113
    10   6 C       21   1 H                                       1.0902353
    14   6 C       22   1 H                                       1.0919253
    14   6 C       23   1 H                                       1.0913278
    14   6 C       24   1 H                                       1.0917245
     4   7 N       25   1 H                                       1.0143492 (min)

 * 5 distinct bonds (by element types)

   Z      Z             #   av. dist./Å        max./Å        min./Å
   1 H    6 C          10     1.0877987     1.0919253     1.0735533
   6 C    6 C           1     1.3573882     1.3573882     1.3573882
   1 H    7 N           1     1.0143492     1.0143492     1.0143492
   6 C    7 N          10     1.3715548     1.4535169     1.2601180
   6 C    8 O           2     1.2062081     1.2094816     1.2029346


optimized geometry written to: xtbopt.xyz


           -------------------------------------------------
          | TOTAL ENERGY              -42.167263028477 Eh   |
          | GRADIENT NORM               0.008246782856 Eh/α |
          | HOMO-LUMO GAP               2.105798671527 eV   |
           -------------------------------------------------

------------------------------------------------------------------------
 * finished run on 2024/06/05 at 19:57:50.336     
------------------------------------------------------------------------
 total:
 * wall-time:     0 d,  0 h,  0 min,  0.262 sec
 *  cpu-time:     0 d,  0 h,  0 min,  0.240 sec
 * ratio c/w:     0.917 speedup
 SCF:
 * wall-time:     0 d,  0 h,  0 min,  0.021 sec
 *  cpu-time:     0 d,  0 h,  0 min,  0.021 sec
 * ratio c/w:     1.000 speedup
 ANC optimizer:
 * wall-time:     0 d,  0 h,  0 min,  0.213 sec
 *  cpu-time:     0 d,  0 h,  0 min,  0.208 sec
 * ratio c/w:     0.976 speedup

