72
 energy: 56.103453092061 xtb: 6.6.1 (8d0f1dd)
N           -1.46383197838815        3.06824745891242        1.55126522920248
C           -1.93808492803705        1.86483852882292        1.47419279779019
C           -3.24078575633189        1.57101673665283        1.03593094267032
C           -3.67194706983916        0.20853566147230        0.86708287247062
C           -4.69901921582021       -0.12107971342038       -0.04704046025548
C           -5.14603886529398       -1.41183461365869       -0.20509195253945
O           -6.14057670293802       -1.80813124292609       -1.05538352546197
C           -6.81153037117112       -0.83972755131476       -1.81672677421964
C           -4.58080378811136       -2.45396860197207        0.56420291935160
O           -5.12008970036382       -3.69353802306871        0.36102173499670
C           -4.65055905525205       -4.76722837286161        1.12897176230248
C           -3.56198400372244       -2.15139085541322        1.44948249107982
C           -3.11291940546676       -0.85302183961260        1.59298553626599
C           -0.70549378331772        3.66520104854525       -2.17649189427457
C           -0.65289429491083        2.25811262828041       -1.76881615291502
C            0.56698303789379        1.82141322164274       -1.09597128476949
N            0.78903145754459        0.59132727012978       -0.61566755019325
C            2.09051370413973        0.24109510246778       -0.11169079062739
C            2.99736627837648       -0.35910971676222       -1.20791217849589
C            4.42912562118162       -0.37495320280931       -0.75637485152326
C            5.22569689415607        0.73992338738241       -0.93511864367277
C            6.54603927162003        0.74649021697883       -0.50717892474358
C            7.08996683269012       -0.36558893385214        0.11057390312971
O            8.37016137489127       -0.47640124006179        0.55892208136317
C            9.24298711019942        0.61123529052949        0.38130375539608
C            6.28024466165068       -1.50935581575007        0.30559826117339
O            6.89860928802616       -2.55555134079594        0.91882172886152
C            6.17988749613202       -3.74526877280155        1.12250972328017
C            4.96569311850726       -1.49578024776286       -0.12532863671583
C           -0.14621857428030       -0.46603902939000       -0.88641349408689
C           -4.23345639168312        2.69220738072550        0.83968804994578
C           -4.34642585868312        3.49824226085224        2.13380593272007
C           -3.88821624927602        3.63701001571481       -0.31738179469757
H           -5.13066480156662        0.65972721368286       -0.65167229187875
H           -7.33967146794335       -0.11614474318428       -1.18340928755314
H           -7.53522355676111       -1.39184934959530       -2.41490186727750
H           -6.13058972713111       -0.30848396686294       -2.49127612303269
H           -4.78511140002223       -4.60989605613416        2.20567863787188
H           -5.25388669931812       -5.61687505566873        0.81362273609539
H           -3.59450061423427       -4.98389797164945        0.93163998802632
H           -3.12509703429612       -2.92316616896678        2.06524516216505
H           -2.35218347110941       -0.66026643154301        2.33249034611100
H           -1.58857731435452        4.03532692466133       -2.65293183098370
H            0.10057050262503        4.33319690317659       -1.94247569737094
H           -1.51787034269828        2.05946135698618       -1.11328432477230
H           -0.82892719565529        1.62697656524216       -2.65066077494329
H           -1.31324698118904        1.00063787187605        1.73594288947034
H            1.32268421235031        2.56390614847767       -0.89287717064077
H            1.96525147313269       -0.47290236320872        0.70553161347206
H            2.57146823076843        1.13925607297136        0.28331060769592
H            2.90812277078976        0.26143812205250       -2.10264925824586
H            2.66086377875353       -1.36761844919673       -1.45222373564945
H            4.82643884328820        1.61625248179901       -1.42398798677178
H            7.14357672224601        1.62926009080757       -0.66961848093515
H            8.89711804259246        1.50019257636866        0.91921119930005
H            9.37304889613507        0.85742052395862       -0.67791584264731
H           10.19803941801030        0.28972579086394        0.79520791771294
H            6.87789042889601       -4.42552981137659        1.60831827388668
H            5.31419414063213       -3.59049252854272        1.77533153902745
H            5.84826056162133       -4.18519479574180        0.17574140766128
H            4.34057086737868       -2.36464952440408        0.01293923994544
H           -0.18124223587978       -0.69382151862747       -1.95586682326714
H           -1.14728311548969       -0.17810696028624       -0.55757746295872
H            0.14675253486318       -1.36294356295133       -0.34810088269938
H           -5.21224424810271        2.25063165737855        0.63759251649734
H           -3.39878351804002        3.97953511856865        2.33937152745581
H           -4.60598351576995        2.84186413101914        2.96111525046784
H           -5.11368761629390        4.25839572666032        2.02810158874965
H           -2.90564771282294        4.06877312899055       -0.15420944427636
H           -3.89448358474069        3.10630894835754       -1.26931488957650
H           -4.62305276291700        4.44012080248378       -0.37028678679969
H           -0.52347735956720        3.11028159590393        1.93852478024404
