72
 energy: 62.828203503700 xtb: 6.6.1 (8d0f1dd)
N           -1.37470904720875        3.11613664482768        1.48147044395874
C           -1.88969103006284        1.93069504484444        1.41883532000594
C           -3.16422658435578        1.63137462413607        0.89783472916088
C           -3.60891863850318        0.26322362077127        0.76623522208835
C           -4.64492174391926       -0.08337340363068       -0.13300418204138
C           -5.11270215498654       -1.36660793006872       -0.23293946946017
O           -6.14630478919543       -1.76234252207729       -1.03396250919503
C           -6.81638744909520       -0.81582748959269       -1.82520920962150
C           -4.54927398476044       -2.39442480500832        0.55453107742550
O           -5.10375097025764       -3.63069021466152        0.38641348518997
C           -4.62846013022880       -4.68983621352267        1.15917358850175
C           -3.52926025740545       -2.07920921350926        1.42951480473312
C           -3.06477803719505       -0.78515989746991        1.52171839135877
C           -0.89207420611700        3.60696637174678       -1.89808065146480
C           -0.69740588121057        2.14856964450623       -1.75105538289620
C            0.58588553699843        1.73888276106632       -1.19612733382274
N            0.78789439937171        0.56309400384675       -0.56303030915730
C            2.12086800775523        0.23377309765954       -0.11674683525648
C            3.02389167450984       -0.35926321712753       -1.22488603719187
C            4.45658251165849       -0.38175366851306       -0.76943703049926
C            5.26091932955354        0.72920589687647       -0.94294416169175
C            6.57861359051034        0.73070610987814       -0.50765982293144
C            7.11511667733646       -0.38252527155844        0.11421581729354
O            8.39533785834923       -0.48368948926012        0.57068532403357
C            9.25861057492829        0.61193134032302        0.38347922646887
C            6.29905565427550       -1.52113993592151        0.30685532130201
O            6.90915461747751       -2.56802470007082        0.92971742783474
C            6.17759931914125       -3.74845063680627        1.13572818414487
C            4.98517464644471       -1.50287682444464       -0.13024405236966
C           -0.10154716636284       -0.54521546011300       -0.85389915230562
C           -4.18615828113075        2.74125552639182        0.74939333878469
C           -4.32523220918039        3.42761295723882        2.10878880840358
C           -3.98399399583088        3.80864029918554       -0.35144306279872
H           -5.09406954665794        0.66839353243324       -0.76305928977502
H           -7.32835502341071       -0.06175451173119       -1.21979400096989
H           -7.55374282440976       -1.39492627890216       -2.38237858205207
H           -6.14619873032503       -0.30307116055506       -2.52380373809338
H           -4.77138389085465       -4.51457424766073        2.23400905448644
H           -5.23448167653264       -5.53412296288694        0.83752103517679
H           -3.57277839175142       -4.90703429764792        0.96231782413376
H           -3.11095712033455       -2.82992147980056        2.08267801451135
H           -2.31279351448098       -0.58142480060611        2.26372842800566
H           -1.76780554251836        3.89558603605806       -2.43549505479883
H           -0.11682813264866        4.30759610643318       -1.63968145957202
H           -1.54768387070017        1.77262166755203       -1.17027301607803
H           -0.77270989757011        1.73071934086167       -2.76437384225964
H           -1.27421400901878        1.05709594950309        1.65852816497837
H            1.27806220330701        2.54573993249412       -0.98992836966718
H            2.02649105975603       -0.47743821210880        0.70979975977977
H            2.60411104568335        1.13788207353097        0.25690495174136
H            2.93916885260000        0.26280519098885       -2.11907620220611
H            2.68784408393987       -1.36696645874231       -1.47387684772765
H            4.87065403598589        1.60758017922173       -1.43485270397510
H            7.17860745413355        1.61332598324658       -0.66222072167903
H            8.90635012993098        1.50490293016032        0.91299529282199
H            9.38546058619125        0.84746062628783       -0.67855477525561
H           10.21722323994899        0.30499990241115        0.79762995988516
H            6.86322417676576       -4.43588677597917        1.62941398744828
H            5.30946342134031       -3.57920395786595        1.78204188448912
H            5.84572153085246       -4.18731944048000        0.18809336193231
H            4.35429115104486       -2.36741663395703        0.00748421342633
H           -0.14255816482465       -0.78246186848183       -1.92438070317591
H           -1.10948487166241       -0.30690599889946       -0.51135951214901
H            0.23250535914471       -1.42727795557925       -0.31867565108924
H           -5.11502899321255        2.23557095716524        0.52121190946002
H           -3.40121867465985        3.90437751536285        2.42714229576181
H           -4.60304981707104        2.69356697755672        2.86755957446594
H           -5.11676835370307        4.16903968143935        2.04069099189731
H           -3.01651895849404        4.29008102633176       -0.23810296586842
H           -4.04155219052189        3.37530759330659       -1.34586555520282
H           -4.76764778667200        4.57349975042034       -0.30212020851901
H           -0.53666884108208        3.16133164066356        2.04905365242009
