      -----------------------------------------------------------      
     |                   =====================                   |     
     |                           x T B                           |     
     |                   =====================                   |     
     |                         S. Grimme                         |     
     |          Mulliken Center for Theoretical Chemistry        |     
     |                    University of Bonn                     |     
      -----------------------------------------------------------      

   * xtb version 6.6.1 (8d0f1dd) compiled by 'conda@1efc2f54142f' on 2023-08-01

   xtb is free software: you can redistribute it and/or modify it under
   the terms of the GNU Lesser General Public License as published by
   the Free Software Foundation, either version 3 of the License, or
   (at your option) any later version.
   
   xtb is distributed in the hope that it will be useful,
   but WITHOUT ANY WARRANTY; without even the implied warranty of
   MERCHANTABILITY or FITNESS FOR A PARTICULAR PURPOSE.  See the
   GNU Lesser General Public License for more details.
   
   Cite this work as:
   * C. Bannwarth, E. Caldeweyher, S. Ehlert, A. Hansen, P. Pracht,
     J. Seibert, S. Spicher, S. Grimme, WIREs Comput. Mol. Sci., 2020, 11,
     e01493. DOI: 10.1002/wcms.1493
   
   for GFN2-xTB:
   * C. Bannwarth, S. Ehlert and S. Grimme., J. Chem. Theory Comput., 2019,
     15, 1652-1671. DOI: 10.1021/acs.jctc.8b01176
   for GFN1-xTB:
   * S. Grimme, C. Bannwarth, P. Shushkov, J. Chem. Theory Comput., 2017,
     13, 1989-2009. DOI: 10.1021/acs.jctc.7b00118
   for GFN0-xTB:
   * P. Pracht, E. Caldeweyher, S. Ehlert, S. Grimme, ChemRxiv, 2019, preprint.
     DOI: 10.26434/chemrxiv.8326202.v1
   for GFN-FF:
   * S. Spicher and S. Grimme, Angew. Chem. Int. Ed., 2020, 59, 15665-15673.
     DOI: 10.1002/anie.202004239
   
   for ALPB and GBSA implicit solvation:
   * S. Ehlert, M. Stahn, S. Spicher, S. Grimme, J. Chem. Theory Comput.,
     2021, 17, 4250-4261. DOI: 10.1021/acs.jctc.1c00471
   
   for DFT-D4:
   * E. Caldeweyher, C. Bannwarth and S. Grimme, J. Chem. Phys., 2017,
     147, 034112. DOI: 10.1063/1.4993215
   * E. Caldeweyher, S. Ehlert, A. Hansen, H. Neugebauer, S. Spicher,
     C. Bannwarth and S. Grimme, J. Chem. Phys., 2019, 150, 154122.
     DOI: 10.1063/1.5090222
   * E. Caldeweyher, J.-M. Mewes, S. Ehlert and S. Grimme, Phys. Chem. Chem. Phys.
     2020, 22, 8499-8512. DOI: 10.1039/D0CP00502A
   
   for sTDA-xTB:
   * S. Grimme and C. Bannwarth, J. Chem. Phys., 2016, 145, 054103.
     DOI: 10.1063/1.4959605
   
   in the mass-spec context:
   * V. Asgeirsson, C. Bauer and S. Grimme, Chem. Sci., 2017, 8, 4879.
     DOI: 10.1039/c7sc00601b
   * J. Koopman and S. Grimme, ACS Omega 2019, 4, 12, 15120-15133.
     DOI: 10.1021/acsomega.9b02011
   
   for metadynamics refer to:
   * S. Grimme, J. Chem. Theory Comput., 2019, 155, 2847-2862
     DOI: 10.1021/acs.jctc.9b00143
   
   for SPH calculations refer to:
   * S. Spicher and S. Grimme, J. Chem. Theory Comput., 2021, 17, 1701-1714
     DOI: 10.1021/acs.jctc.0c01306
   
   with help from (in alphabetical order)
   P. Atkinson, C. Bannwarth, F. Bohle, G. Brandenburg, E. Caldeweyher
   M. Checinski, S. Dohm, S. Ehlert, S. Ehrlich, I. Gerasimov, C. Hölzer
   A. Katbashev, J. Koopman, C. Lavigne, S. Lehtola, F. März, M. Müller,
   F. Musil, H. Neugebauer, J. Pisarek, C. Plett, P. Pracht, F. Pultar,
   J. Seibert, P. Shushkov, S. Spicher, M. Stahn, M. Steiner, T. Strunk,
   J. Stückrath, T. Rose, and J. Unsleber
   
 * started run on 2024/06/05 at 20:00:08.414     

           -------------------------------------------------
          |                Calculation Setup                |
           -------------------------------------------------

          program call               : xtb struc.xyz --opt loose --input .xc1 --gfn2
          hostname                   : n-62-11-66
          coordinate file            : struc.xyz
          omp threads                :                     1

   ID    Z sym.   atoms
    1    6 C      1, 3, 5-7, 10, 11, 14
    2    7 N      2, 4, 9, 13
    3    8 O      8, 12
    4    1 H      15-25
constraining bond 4 11 to    5.9200000 Å, actual value:    3.6888736 Å

           -------------------------------------------------
          |                 G F N 2 - x T B                 |
           -------------------------------------------------

        Reference                      10.1021/acs.jctc.8b01176
      * Hamiltonian:
        H0-scaling (s, p, d)           1.850000    2.230000    2.230000
        zeta-weighting                 0.500000
      * Dispersion:
        s8                             2.700000
        a1                             0.520000
        a2                             5.000000
        s9                             5.000000
      * Repulsion:
        kExp                           1.500000    1.000000
        rExp                           1.000000
      * Coulomb:
        alpha                          2.000000
        third order                    shell-resolved
        anisotropic                    true
        a3                             3.000000
        a5                             4.000000
        cn-shift                       1.200000
        cn-exp                         4.000000
        max-rad                        5.000000


          ...................................................
          :                      SETUP                      :
          :.................................................:
          :  # basis functions                  67          :
          :  # atomic orbitals                  67          :
          :  # shells                           39          :
          :  # electrons                        74          :
          :  max. iterations                   250          :
          :  Hamiltonian                  GFN2-xTB          :
          :  restarted?                      false          :
          :  GBSA solvation                  false          :
          :  PC potential                    false          :
          :  electronic temp.         5000.0000000     K    :
          :  accuracy                    1.0000000          :
          :  -> integral cutoff          0.2500000E+02      :
          :  -> integral neglect         0.1000000E-07      :
          :  -> SCF convergence          0.1000000E-05 Eh   :
          :  -> wf. convergence          0.1000000E-03 e    :
          :  Broyden damping             0.4000000          :
          ...................................................

 iter      E             dE          RMSdq      gap      omega  full diag
   1    -42.5894031 -0.425894E+02  0.445E+00    3.52       0.0  T
   2    -42.7683054 -0.178902E+00  0.251E+00    3.36       1.0  T
   3    -42.7759211 -0.761567E-02  0.147E+00    3.35       1.0  T
   4    -42.7728404  0.308066E-02  0.553E-01    3.33       1.0  T
   5    -42.7789548 -0.611444E-02  0.112E-01    3.35       1.0  T
   6    -42.7790473 -0.924914E-04  0.614E-02    3.33       1.0  T
   7    -42.7790721 -0.247928E-04  0.258E-02    3.34       1.0  T
   8    -42.7790772 -0.508996E-05  0.938E-03    3.34       2.1  T
   9    -42.7790779 -0.669422E-06  0.448E-03    3.34       4.5  T
  10    -42.7790780 -0.821510E-07  0.115E-03    3.34      17.4  T
  11    -42.7790780 -0.322663E-08  0.553E-04    3.34      36.2  T
  12    -42.7790780 -0.287051E-08  0.180E-04    3.34     111.1  T

   *** convergence criteria satisfied after 12 iterations ***

         #    Occupation            Energy/Eh            Energy/eV
      -------------------------------------------------------------
         1        2.0000           -0.9185990             -24.9964
       ...           ...                  ...                  ...
        31        1.9996           -0.6230278             -16.9534
        32        1.9995           -0.6194601             -16.8564
        33        1.9979           -0.5974976             -16.2587
        34        1.9932           -0.5789629             -15.7544
        35        1.9817           -0.5631863             -15.3251
        36        1.9779           -0.5602245             -15.2445
        37        1.9748           -0.5581234             -15.1873 (HOMO)
        38        0.0652           -0.4353579             -11.8467 (LUMO)
        39        0.0099           -0.4050467             -11.0219
        40        0.0013           -0.3732218             -10.1559
        41        0.0000           -0.2886859              -7.8555
        42                         -0.2065804              -5.6213
       ...                                ...                  ...
        67                          0.5625656              15.3082
      -------------------------------------------------------------
                  HL-Gap            0.1227656 Eh            3.3406 eV
             Fermi-level           -0.4890455 Eh          -13.3076 eV

 SCC (total)                   0 d,  0 h,  0 min,  0.034 sec
 SCC setup                      ...        0 min,  0.000 sec (  0.848%)
 Dispersion                     ...        0 min,  0.000 sec (  0.975%)
 classical contributions        ...        0 min,  0.000 sec (  0.279%)
 integral evaluation            ...        0 min,  0.005 sec ( 15.621%)
 iterations                     ...        0 min,  0.016 sec ( 47.472%)
 molecular gradient             ...        0 min,  0.012 sec ( 34.317%)
 printout                       ...        0 min,  0.000 sec (  0.461%)

         :::::::::::::::::::::::::::::::::::::::::::::::::::::
         ::                     SUMMARY                     ::
         :::::::::::::::::::::::::::::::::::::::::::::::::::::
         :: total energy              -6.694877743117 Eh    ::
         :: gradient norm             23.847494328774 Eh/a0 ::
         :: HOMO-LUMO gap              3.340621582928 eV    ::
         ::.................................................::
         :: SCC energy               -42.779077977399 Eh    ::
         :: -> isotropic ES            0.141123876439 Eh    ::
         :: -> anisotropic ES         -0.005230418907 Eh    ::
         :: -> anisotropic XC          0.011966818540 Eh    ::
         :: -> dispersion             -0.022657731803 Eh    ::
         :: repulsion energy           0.531105277918 Eh    ::
         :: add. restraining          35.552980797355 Eh    ::
         :: total charge               1.000000000002 e     ::
         :::::::::::::::::::::::::::::::::::::::::::::::::::::

      ----------------------------------------------------------- 
     |                   =====================                   |
     |                        A N C O P T                        |
     |                   =====================                   |
     |               Approximate Normal Coordinate               |
     |                Rational Function Optimizer                |
      ----------------------------------------------------------- 

          ...................................................
          :                      SETUP                      :
          :.................................................:
          :   optimization level             loose          :
          :   max. optcycles                   200          :
          :   ANC micro-cycles                  20          :
          :   degrees of freedom                69          :
          :.................................................:
          :   RF solver                   davidson          :
          :   write xtbopt.log                true          :
          :   linear?                        false          :
          :   energy convergence         0.5000000E-04 Eh   :
          :   grad. convergence          0.4000000E-02 Eh/α :
          :   maxmium RF displ.          1.0000000          :
          :   Hlow (freq-cutoff)         0.1000000E-01      :
          :   Hmax (freq-cutoff)         5.0000000          :
          :   S6 in model hess.         20.0000000          :
          ...................................................

generating ANC from model Hessian ...
Using Lindh-Hessian (1995)
 Shifting diagonal of input Hessian by    4.4047892605430601     
 Lowest  eigenvalues of input Hessian
    0.010000    0.970659    0.000000    0.000000    0.000000    0.000000
    0.000000    0.000000    4.408636    4.409115    4.413334    4.413565
    4.414804    4.416500    4.417892    4.419970    4.429494    4.440179
 Highest eigenvalues
    6.415345    6.542990    6.634687    6.688255    6.856416   13.881106


........................................................................
.............................. CYCLE    1 ..............................
........................................................................

 iter      E             dE          RMSdq      gap      omega  full diag
   1    -42.7790780 -0.427791E+02  0.626E-05    3.34       0.0  T
   2    -42.7790780 -0.124416E-10  0.329E-05    3.34     607.4  T
   3    -42.7790780  0.127898E-12  0.193E-05    3.34    1034.2  T
     SCC iter.                  ...        0 min,  0.004 sec
     gradient                   ...        0 min,  0.012 sec
 * total energy  :    -6.6948777 Eh     change       -0.6650680E-10 Eh
   gradient norm :    23.8474940 Eh/α   predicted     0.0000000E+00 (-100.00%)
   displ. norm   :     0.9006570 α      lambda       -0.2147840E+02
   maximum displ.:     0.8951033 α      in ANC's #47, #62, #63, ...

........................................................................
.............................. CYCLE    2 ..............................
........................................................................

 iter      E             dE          RMSdq      gap      omega  full diag
   1    -42.6815842 -0.426816E+02  0.203E+00    3.18       0.0  T
   2    -42.7487984 -0.672142E-01  0.113E+00    3.14       1.0  T
   3    -42.7563464 -0.754805E-02  0.619E-01    3.13       1.0  T
   4    -42.7577668 -0.142038E-02  0.436E-01    3.17       1.0  T
   5    -42.7592127 -0.144593E-02  0.909E-02    3.15       1.0  T
   6    -42.7593605 -0.147727E-03  0.346E-02    3.15       1.0  T
   7    -42.7593714 -0.108943E-04  0.129E-02    3.15       1.5  T
   8    -42.7593721 -0.715707E-06  0.404E-03    3.15       5.0  T
   9    -42.7593722 -0.858020E-07  0.156E-03    3.15      12.8  T
  10    -42.7593722 -0.657641E-08  0.610E-04    3.15      32.8  T
  11    -42.7593722 -0.374453E-08  0.233E-04    3.15      85.7  T
     SCC iter.                  ...        0 min,  0.014 sec
     gradient                   ...        0 min,  0.011 sec
 * total energy  :   -24.6625869 Eh     change       -0.1796771E+02 Eh
   gradient norm :    16.0782189 Eh/α   predicted    -0.1945066E+02 (   8.25%)
   displ. norm   :     0.7779695 α      lambda       -0.1241388E+02
   maximum displ.:     0.7540850 α      in ANC's #47, #55, #68, ...

........................................................................
.............................. CYCLE    3 ..............................
........................................................................

 iter      E             dE          RMSdq      gap      omega  full diag
   1    -42.6158203 -0.426158E+02  0.129E+00    1.86       0.0  T
   2    -42.6370894 -0.212691E-01  0.891E-01    2.41       1.0  T
   3    -42.6463021 -0.921270E-02  0.449E-01    2.01       1.0  T
   4    -42.6476005 -0.129836E-02  0.284E-01    2.17       1.0  T
   5    -42.6479116 -0.311129E-03  0.148E-01    2.12       1.0  T
   6    -42.6483895 -0.477922E-03  0.395E-02    2.12       1.0  T
   7    -42.6484124 -0.228324E-04  0.130E-02    2.12       1.5  T
   8    -42.6484131 -0.743415E-06  0.543E-03    2.12       3.7  T
   9    -42.6484132 -0.120852E-06  0.197E-03    2.12      10.2  T
  10    -42.6484133 -0.397699E-07  0.106E-03    2.12      18.9  T
  11    -42.6484133 -0.118788E-07  0.233E-04    2.12      85.8  T
  12    -42.6484133 -0.647233E-10  0.104E-04    2.12     191.7  T
     SCC iter.                  ...        0 min,  0.015 sec
     gradient                   ...        0 min,  0.011 sec
 * total energy  :   -34.7963806 Eh     change       -0.1013379E+02 Eh
   gradient norm :    10.1227704 Eh/α   predicted    -0.9994807E+01 (  -1.37%)
   displ. norm   :     0.7402602 α      lambda       -0.7306538E+01
   maximum displ.:     0.6542198 α      in ANC's #47, #2, #68, ...

........................................................................
.............................. CYCLE    4 ..............................
........................................................................

 iter      E             dE          RMSdq      gap      omega  full diag
   1    -42.4050833 -0.424051E+02  0.173E+00    1.06       0.0  T
   2    -42.4183113 -0.132280E-01  0.166E+00    1.46       1.0  T
   3    -42.4834345 -0.651232E-01  0.625E-01    1.34       1.0  T
   4    -42.4880864 -0.465197E-02  0.412E-01    1.26       1.0  T
   5    -42.4895906 -0.150420E-02  0.188E-01    1.33       1.0  T
   6    -42.4896530 -0.623895E-04  0.117E-01    1.24       1.0  T
   7    -42.4900364 -0.383376E-03  0.402E-02    1.29       1.0  T
   8    -42.4900624 -0.260097E-04  0.257E-02    1.28       1.0  T
   9    -42.4900810 -0.185614E-04  0.978E-03    1.28       2.0  T
  10    -42.4900831 -0.210309E-05  0.295E-03    1.28       6.8  T
  11    -42.4900833 -0.204365E-06  0.124E-03    1.28      16.1  T
  12    -42.4900833 -0.150811E-07  0.398E-04    1.28      50.3  T
  13    -42.4900833 -0.140512E-08  0.163E-04    1.28     122.6  T
     SCC iter.                  ...        0 min,  0.016 sec
     gradient                   ...        0 min,  0.011 sec
 * total energy  :   -40.2356722 Eh     change       -0.5439292E+01 Eh
   gradient norm :     4.9587345 Eh/α   predicted    -0.5655211E+01 (   3.97%)
   displ. norm   :     0.5090362 α      lambda       -0.2512504E+01
   maximum displ.:     0.4889200 α      in ANC's #47, #2, #68, ...

........................................................................
.............................. CYCLE    5 ..............................
........................................................................

 iter      E             dE          RMSdq      gap      omega  full diag
   1    -42.3331280 -0.423331E+02  0.133E+00    0.82       0.0  T
   2    -42.3033324  0.297956E-01  0.147E+00    0.87       1.0  T
   3    -42.3781122 -0.747798E-01  0.490E-01    1.11       1.0  T
   4    -42.3803748 -0.226268E-02  0.328E-01    0.94       1.0  T
   5    -42.3818840 -0.150921E-02  0.139E-01    1.03       1.0  T
   6    -42.3815877  0.296386E-03  0.109E-01    1.00       1.0  T
   7    -42.3821611 -0.573447E-03  0.309E-02    1.01       1.0  T
   8    -42.3821774 -0.163098E-04  0.166E-02    1.02       1.2  T
   9    -42.3821819 -0.452684E-05  0.749E-03    1.01       2.7  T
  10    -42.3821833 -0.139275E-05  0.203E-03    1.01       9.9  T
  11    -42.3821834 -0.886356E-07  0.837E-04    1.01      23.9  T
  12    -42.3821834 -0.516865E-08  0.252E-04    1.01      79.5  T
     SCC iter.                  ...        0 min,  0.015 sec
     gradient                   ...        0 min,  0.011 sec
 * total energy  :   -41.7533884 Eh     change       -0.1517716E+01 Eh
   gradient norm :     1.0243585 Eh/α   predicted    -0.1581795E+01 (   4.22%)
   displ. norm   :     0.1847255 α      lambda       -0.1586392E+00
   maximum displ.:     0.1251863 α      in ANC's #2, #47, #68, ...

........................................................................
.............................. CYCLE    6 ..............................
........................................................................

 iter      E             dE          RMSdq      gap      omega  full diag
   1    -42.3177305 -0.423177E+02  0.946E-01    1.01       0.0  T
   2    -42.2843098  0.334207E-01  0.124E+00    0.85       1.0  T
   3    -42.3466371 -0.623273E-01  0.305E-01    1.07       1.0  T
   4    -42.3477179 -0.108074E-02  0.162E-01    0.99       1.0  T
   5    -42.3480623 -0.344483E-03  0.854E-02    1.04       1.0  T
   6    -42.3480703 -0.795226E-05  0.474E-02    1.01       1.0  T
   7    -42.3481554 -0.850665E-04  0.205E-02    1.02       1.0  T
   8    -42.3481650 -0.961815E-05  0.104E-02    1.02       1.9  T
   9    -42.3481671 -0.209273E-05  0.474E-03    1.02       4.2  T
  10    -42.3481672 -0.172734E-06  0.282E-03    1.02       7.1  T
  11    -42.3481675 -0.271640E-06  0.983E-04    1.02      20.3  T
  12    -42.3481675 -0.107406E-07  0.533E-04    1.02      37.5  T
     SCC iter.                  ...        0 min,  0.015 sec
     gradient                   ...        0 min,  0.011 sec
 * total energy  :   -41.8385483 Eh     change       -0.8515982E-01 Eh
   gradient norm :     0.2237402 Eh/α   predicted    -0.8202644E-01 (  -3.68%)
   displ. norm   :     0.0624019 α      lambda       -0.1200064E-01
   maximum displ.:     0.0276117 α      in ANC's #2, #62, #68, ...

........................................................................
.............................. CYCLE    7 ..............................
........................................................................

 iter      E             dE          RMSdq      gap      omega  full diag
   1    -42.3560078 -0.423560E+02  0.263E-01    1.13       0.0  T
   2    -42.3524937  0.351410E-02  0.377E-01    0.96       1.0  T
   3    -42.3577440 -0.525021E-02  0.984E-02    1.07       1.0  T
   4    -42.3579998 -0.255842E-03  0.445E-02    1.06       1.0  T
   5    -42.3579670  0.327870E-04  0.442E-02    1.05       1.0  T
   6    -42.3580350 -0.679428E-04  0.133E-02    1.06       1.5  T
   7    -42.3580387 -0.376016E-05  0.338E-03    1.06       5.9  T
   8    -42.3580387 -0.968369E-08  0.188E-03    1.06      10.6  T
   9    -42.3580388 -0.970169E-07  0.721E-04    1.06      27.7  T
  10    -42.3580388 -0.163300E-07  0.299E-04    1.06      67.0  T
     SCC iter.                  ...        0 min,  0.013 sec
     gradient                   ...        0 min,  0.011 sec
 * total energy  :   -41.8493968 Eh     change       -0.1084858E-01 Eh
   gradient norm :     0.2158068 Eh/α   predicted    -0.6023743E-02 ( -44.47%)
   displ. norm   :     0.3150201 α      lambda       -0.5954444E-01
   maximum displ.:     0.1320073 α      in ANC's #62, #36, #68, ...

........................................................................
.............................. CYCLE    8 ..............................
........................................................................

 iter      E             dE          RMSdq      gap      omega  full diag
   1    -42.4061512 -0.424062E+02  0.102E+00    1.38       0.0  T
   2    -42.3948892  0.112620E-01  0.108E+00    0.97       1.0  T
   3    -42.4307874 -0.358982E-01  0.355E-01    1.43       1.0  T
   4    -42.4330681 -0.228071E-02  0.176E-01    1.37       1.0  T
   5    -42.4323686  0.699438E-03  0.175E-01    1.30       1.0  T
   6    -42.4335658 -0.119714E-02  0.386E-02    1.35       1.0  T
   7    -42.4335869 -0.211214E-04  0.159E-02    1.35       1.3  T
   8    -42.4335921 -0.519233E-05  0.798E-03    1.36       2.5  T
   9    -42.4335928 -0.707497E-06  0.353E-03    1.36       5.7  T
  10    -42.4335932 -0.383242E-06  0.806E-04    1.36      24.8  T
  11    -42.4335932 -0.354674E-08  0.462E-04    1.36      43.3  T
     SCC iter.                  ...        0 min,  0.014 sec
     gradient                   ...        0 min,  0.011 sec
 * total energy  :   -41.8863559 Eh     change       -0.3695907E-01 Eh
   gradient norm :     0.2500020 Eh/α   predicted    -0.3272682E-01 ( -11.45%)
   displ. norm   :     0.1691180 α      lambda       -0.1896254E-01
   maximum displ.:     0.0650097 α      in ANC's #1, #36, #62, ...

........................................................................
.............................. CYCLE    9 ..............................
........................................................................

 iter      E             dE          RMSdq      gap      omega  full diag
   1    -42.4709111 -0.424709E+02  0.335E-01    1.56       0.0  T
   2    -42.4710091 -0.980356E-04  0.303E-01    1.34       1.0  T
   3    -42.4732673 -0.225813E-02  0.108E-01    1.50       1.0  T
   4    -42.4732025  0.647035E-04  0.738E-02    1.46       1.0  T
   5    -42.4732792 -0.766996E-04  0.438E-02    1.47       1.0  T
   6    -42.4733537 -0.744646E-04  0.121E-02    1.48       1.7  T
   7    -42.4733567 -0.300889E-05  0.411E-03    1.48       4.9  T
   8    -42.4733569 -0.148743E-06  0.236E-03    1.48       8.5  T
   9    -42.4733570 -0.958135E-07  0.544E-04    1.48      36.8  T
  10    -42.4733570 -0.432104E-08  0.266E-04    1.48      75.2  T
     SCC iter.                  ...        0 min,  0.012 sec
     gradient                   ...        0 min,  0.011 sec
 * total energy  :   -41.9025999 Eh     change       -0.1624400E-01 Eh
   gradient norm :     0.2502295 Eh/α   predicted    -0.9753953E-02 ( -39.95%)
   displ. norm   :     0.4491079 α      lambda       -0.5615387E-01
   maximum displ.:     0.1747626 α      in ANC's #36, #33, #62, ...

........................................................................
.............................. CYCLE   10 ..............................
........................................................................

 iter      E             dE          RMSdq      gap      omega  full diag
   1    -42.5512244 -0.425512E+02  0.741E-01    1.83       0.0  T
   2    -42.5514583 -0.233913E-03  0.631E-01    1.37       1.0  T
   3    -42.5590865 -0.762821E-02  0.295E-01    1.70       1.0  T
   4    -42.5588794  0.207150E-03  0.211E-01    1.54       1.0  T
   5    -42.5602279 -0.134856E-02  0.683E-02    1.61       1.0  T
   6    -42.5603446 -0.116631E-03  0.217E-02    1.62       1.0  T
   7    -42.5603490 -0.442098E-05  0.927E-03    1.62       2.2  T
   8    -42.5603506 -0.163259E-05  0.304E-03    1.62       6.6  T
   9    -42.5603507 -0.101191E-06  0.113E-03    1.62      17.6  T
  10    -42.5603507 -0.297698E-08  0.518E-04    1.62      38.6  T
  11    -42.5603507 -0.336109E-08  0.196E-04    1.62     101.9  T
     SCC iter.                  ...        0 min,  0.014 sec
     gradient                   ...        0 min,  0.011 sec
 * total energy  :   -41.9387899 Eh     change       -0.3618997E-01 Eh
   gradient norm :     0.1955315 Eh/α   predicted    -0.3373997E-01 (  -6.77%)
   displ. norm   :     0.2704059 α      lambda       -0.1542515E-01
   maximum displ.:     0.1681598 α      in ANC's #1, #36, #14, ...

........................................................................
.............................. CYCLE   11 ..............................
........................................................................

 iter      E             dE          RMSdq      gap      omega  full diag
   1    -42.5828135 -0.425828E+02  0.348E-01    1.74       0.0  T
   2    -42.5828004  0.130510E-04  0.252E-01    1.60       1.0  T
   3    -42.5833621 -0.561715E-03  0.156E-01    1.72       1.0  T
   4    -42.5837575 -0.395309E-03  0.617E-02    1.67       1.0  T
   5    -42.5838459 -0.884860E-04  0.132E-02    1.68       1.5  T
   6    -42.5838473 -0.137882E-05  0.604E-03    1.68       3.3  T
   7    -42.5838476 -0.248517E-06  0.181E-03    1.68      11.1  T
   8    -42.5838476 -0.369197E-07  0.754E-04    1.68      26.5  T
   9    -42.5838476 -0.280174E-09  0.425E-04    1.68      47.1  T
     SCC iter.                  ...        0 min,  0.011 sec
     gradient                   ...        0 min,  0.011 sec
 * total energy  :   -41.9495476 Eh     change       -0.1075771E-01 Eh
   gradient norm :     0.1880697 Eh/α   predicted    -0.8277070E-02 ( -23.06%)
   displ. norm   :     0.2520157 α      lambda       -0.1599543E-01
   maximum displ.:     0.1359352 α      in ANC's #1, #36, #14, ...

........................................................................
.............................. CYCLE   12 ..............................
........................................................................

 iter      E             dE          RMSdq      gap      omega  full diag
   1    -42.5969269 -0.425969E+02  0.310E-01    1.80       0.0  T
   2    -42.5971780 -0.251122E-03  0.214E-01    1.72       1.0  T
   3    -42.5976421 -0.464158E-03  0.131E-01    1.77       1.0  T
   4    -42.5978377 -0.195572E-03  0.534E-02    1.76       1.0  T
   5    -42.5978930 -0.553463E-04  0.142E-02    1.76       1.4  T
   6    -42.5978970 -0.395517E-05  0.688E-03    1.76       2.9  T
   7    -42.5978974 -0.400862E-06  0.286E-03    1.76       7.0  T
   8    -42.5978976 -0.182049E-06  0.992E-04    1.76      20.2  T
   9    -42.5978976 -0.133939E-07  0.428E-04    1.76      46.8  T
     SCC iter.                  ...        0 min,  0.011 sec
     gradient                   ...        0 min,  0.011 sec
 * total energy  :   -41.9612600 Eh     change       -0.1171237E-01 Eh
   gradient norm :     0.1735181 Eh/α   predicted    -0.8505719E-02 ( -27.38%)
   displ. norm   :     0.2561605 α      lambda       -0.1936042E-01
   maximum displ.:     0.1395222 α      in ANC's #1, #14, #36, ...

........................................................................
.............................. CYCLE   13 ..............................
........................................................................

 iter      E             dE          RMSdq      gap      omega  full diag
   1    -42.5963309 -0.425963E+02  0.373E-01    1.80       0.0  T
   2    -42.5974605 -0.112962E-02  0.286E-01    1.79       1.0  T
   3    -42.5989238 -0.146331E-02  0.122E-01    1.79       1.0  T
   4    -42.5989130  0.107991E-04  0.683E-02    1.80       1.0  T
   5    -42.5989955 -0.824753E-04  0.158E-02    1.79       1.3  T
   6    -42.5989998 -0.426512E-05  0.907E-03    1.79       2.2  T
   7    -42.5990010 -0.120999E-05  0.264E-03    1.80       7.6  T
   8    -42.5990010 -0.523706E-07  0.147E-03    1.79      13.6  T
   9    -42.5990011 -0.488019E-07  0.556E-04    1.79      36.0  T
  10    -42.5990011 -0.126457E-08  0.229E-04    1.79      87.5  T
     SCC iter.                  ...        0 min,  0.012 sec
     gradient                   ...        0 min,  0.011 sec
 * total energy  :   -41.9744150 Eh     change       -0.1315502E-01 Eh
   gradient norm :     0.1813005 Eh/α   predicted    -0.1031645E-01 ( -21.58%)
   displ. norm   :     0.3443234 α      lambda       -0.1637978E-01
   maximum displ.:     0.2612734 α      in ANC's #1, #14, #66, ...

........................................................................
.............................. CYCLE   14 ..............................
........................................................................

 iter      E             dE          RMSdq      gap      omega  full diag
   1    -42.5978465 -0.425978E+02  0.386E-01    1.82       0.0  T
   2    -42.5983819 -0.535468E-03  0.266E-01    1.82       1.0  T
   3    -42.5990551 -0.673110E-03  0.151E-01    1.82       1.0  T
   4    -42.5991967 -0.141634E-03  0.562E-02    1.82       1.0  T
   5    -42.5992542 -0.574944E-04  0.126E-02    1.82       1.6  T
   6    -42.5992545 -0.364623E-06  0.794E-03    1.82       2.5  T
   7    -42.5992558 -0.123496E-05  0.275E-03    1.82       7.3  T
   8    -42.5992560 -0.169611E-06  0.950E-04    1.82      21.1  T
   9    -42.5992560 -0.589561E-08  0.454E-04    1.82      44.1  T
     SCC iter.                  ...        0 min,  0.011 sec
     gradient                   ...        0 min,  0.011 sec
 * total energy  :   -41.9846067 Eh     change       -0.1019173E-01 Eh
   gradient norm :     0.1751836 Eh/α   predicted    -0.9160912E-02 ( -10.11%)
   displ. norm   :     0.3378578 α      lambda       -0.1553676E-01
   maximum displ.:     0.2467038 α      in ANC's #1, #14, #66, ...

........................................................................
.............................. CYCLE   15 ..............................
........................................................................

 iter      E             dE          RMSdq      gap      omega  full diag
   1    -42.5950537 -0.425951E+02  0.359E-01    1.78       0.0  T
   2    -42.5952569 -0.203129E-03  0.249E-01    1.82       1.0  T
   3    -42.5957050 -0.448159E-03  0.152E-01    1.81       1.0  T
   4    -42.5959178 -0.212777E-03  0.493E-02    1.81       1.0  T
   5    -42.5959662 -0.484472E-04  0.130E-02    1.82       1.5  T
   6    -42.5959673 -0.110524E-05  0.645E-03    1.81       3.1  T
   7    -42.5959676 -0.268894E-06  0.219E-03    1.82       9.1  T
   8    -42.5959677 -0.934246E-07  0.966E-04    1.82      20.7  T
   9    -42.5959677 -0.762768E-08  0.485E-04    1.82      41.2  T
     SCC iter.                  ...        0 min,  0.011 sec
     gradient                   ...        0 min,  0.011 sec
 * total energy  :   -41.9934267 Eh     change       -0.8819935E-02 Eh
   gradient norm :     0.1431628 Eh/α   predicted    -0.8655367E-02 (  -1.87%)
   displ. norm   :     0.1624094 α      lambda       -0.8561415E-02
   maximum displ.:     0.0861471 α      in ANC's #1, #2, #14, ...

........................................................................
.............................. CYCLE   16 ..............................
........................................................................

 iter      E             dE          RMSdq      gap      omega  full diag
   1    -42.5968944 -0.425969E+02  0.185E-01    1.77       0.0  T
   2    -42.5970007 -0.106278E-03  0.163E-01    1.83       1.0  T
   3    -42.5976073 -0.606655E-03  0.685E-02    1.80       1.0  T
   4    -42.5975997  0.763682E-05  0.305E-02    1.80       1.0  T
   5    -42.5976165 -0.168582E-04  0.722E-03    1.80       2.8  T
   6    -42.5976175 -0.922692E-06  0.353E-03    1.80       5.7  T
   7    -42.5976175 -0.834379E-07  0.159E-03    1.80      12.6  T
   8    -42.5976176 -0.441640E-07  0.535E-04    1.80      37.4  T
   9    -42.5976176 -0.387344E-08  0.268E-04    1.80      74.8  T
     SCC iter.                  ...        0 min,  0.011 sec
     gradient                   ...        0 min,  0.011 sec
 * total energy  :   -42.0000954 Eh     change       -0.6668753E-02 Eh
   gradient norm :     0.1194711 Eh/α   predicted    -0.4393702E-02 ( -34.12%)
   displ. norm   :     0.1803286 α      lambda       -0.1088977E-01
   maximum displ.:     0.1041452 α      in ANC's #2, #14, #68, ...

........................................................................
.............................. CYCLE   17 ..............................
........................................................................

 iter      E             dE          RMSdq      gap      omega  full diag
   1    -42.5978969 -0.425979E+02  0.259E-01    1.69       0.0  T
   2    -42.5982929 -0.395984E-03  0.260E-01    1.83       1.0  T
   3    -42.6000873 -0.179441E-02  0.872E-02    1.77       1.0  T
   4    -42.6000805  0.686812E-05  0.400E-02    1.77       1.0  T
   5    -42.6000968 -0.163528E-04  0.135E-02    1.77       1.5  T
   6    -42.6001026 -0.578780E-05  0.492E-03    1.77       4.1  T
   7    -42.6001028 -0.201845E-06  0.214E-03    1.77       9.3  T
   8    -42.6001028 -0.427189E-07  0.844E-04    1.77      23.7  T
   9    -42.6001028 -0.122154E-07  0.371E-04    1.77      53.9  T
     SCC iter.                  ...        0 min,  0.011 sec
     gradient                   ...        0 min,  0.011 sec
 * total energy  :   -42.0069817 Eh     change       -0.6886336E-02 Eh
   gradient norm :     0.1042467 Eh/α   predicted    -0.5622532E-02 ( -18.35%)
   displ. norm   :     0.0837076 α      lambda       -0.3689211E-02
   maximum displ.:     0.0431120 α      in ANC's #2, #14, #13, ...

........................................................................
.............................. CYCLE   18 ..............................
........................................................................

 iter      E             dE          RMSdq      gap      omega  full diag
   1    -42.5993583 -0.425994E+02  0.107E-01    1.70       0.0  T
   2    -42.5993935 -0.352456E-04  0.977E-02    1.79       1.0  T
   3    -42.5996373 -0.243739E-03  0.375E-02    1.74       1.0  T
   4    -42.5996346  0.272115E-05  0.164E-02    1.75       1.2  T
   5    -42.5996392 -0.466858E-05  0.504E-03    1.74       4.0  T
   6    -42.5996399 -0.689206E-06  0.215E-03    1.75       9.3  T
   7    -42.5996399 -0.306474E-07  0.763E-04    1.75      26.2  T
   8    -42.5996400 -0.544460E-08  0.281E-04    1.75      71.3  T
     SCC iter.                  ...        0 min,  0.010 sec
     gradient                   ...        0 min,  0.011 sec
 * total energy  :   -42.0099981 Eh     change       -0.3016327E-02 Eh
   gradient norm :     0.1032259 Eh/α   predicted    -0.1857635E-02 ( -38.41%)
   displ. norm   :     0.1707283 α      lambda       -0.8594558E-02
   maximum displ.:     0.0749313 α      in ANC's #14, #2, #13, ...

........................................................................
.............................. CYCLE   19 ..............................
........................................................................

 iter      E             dE          RMSdq      gap      omega  full diag
   1    -42.5969013 -0.425969E+02  0.239E-01    1.59       0.0  T
   2    -42.5970397 -0.138376E-03  0.196E-01    1.80       1.0  T
   3    -42.5980099 -0.970228E-03  0.823E-02    1.69       1.0  T
   4    -42.5980146 -0.470872E-05  0.348E-02    1.70       1.0  T
   5    -42.5980386 -0.240035E-04  0.901E-03    1.70       2.2  T
   6    -42.5980403 -0.164696E-05  0.418E-03    1.70       4.8  T
   7    -42.5980404 -0.136376E-06  0.201E-03    1.70      10.0  T
   8    -42.5980404 -0.429924E-07  0.700E-04    1.70      28.6  T
   9    -42.5980404 -0.627887E-08  0.360E-04    1.70      55.6  T
     SCC iter.                  ...        0 min,  0.011 sec
     gradient                   ...        0 min,  0.011 sec
 * total energy  :   -42.0161149 Eh     change       -0.6116848E-02 Eh
   gradient norm :     0.1058461 Eh/α   predicted    -0.4422594E-02 ( -27.70%)
   displ. norm   :     0.1461174 α      lambda       -0.6233870E-02
   maximum displ.:     0.0658074 α      in ANC's #14, #2, #13, ...

........................................................................
.............................. CYCLE   20 ..............................
........................................................................

 iter      E             dE          RMSdq      gap      omega  full diag
   1    -42.5994518 -0.425995E+02  0.225E-01    1.61       0.0  T
   2    -42.5996026 -0.150817E-03  0.164E-01    1.72       1.0  T
   3    -42.6002523 -0.649676E-03  0.774E-02    1.66       1.0  T
   4    -42.6002853 -0.329683E-04  0.329E-02    1.67       1.0  T
   5    -42.6003060 -0.206748E-04  0.700E-03    1.67       2.9  T
   6    -42.6003066 -0.689445E-06  0.272E-03    1.67       7.3  T
   7    -42.6003067 -0.184569E-07  0.158E-03    1.67      12.7  T
   8    -42.6003067 -0.282302E-07  0.686E-04    1.67      29.2  T
   9    -42.6003067 -0.769626E-08  0.260E-04    1.67      76.8  T
     SCC iter.                  ...        0 min,  0.011 sec
     gradient                   ...        0 min,  0.011 sec
 * total energy  :   -42.0206287 Eh     change       -0.4513804E-02 Eh
   gradient norm :     0.1081392 Eh/α   predicted    -0.3183632E-02 ( -29.47%)
   displ. norm   :     0.1388450 α      lambda       -0.5411834E-02
   maximum displ.:     0.0680618 α      in ANC's #14, #13, #2, ...
 * RMSD in coord.:     0.7809085 α      energy gain  -0.3532575E+02 Eh

generating ANC from model Hessian ...
Using Lindh-Hessian (1995)
 Shifting diagonal of input Hessian by    9.8891494760554467E-003
 Lowest  eigenvalues of input Hessian
    0.000000    0.000000    0.000000    0.000000    0.000000    0.000000
    0.010000    0.010287    0.010812    0.010901    0.012994    0.013044
    0.014691    0.015787    0.015856    0.016943    0.019417    0.021208
 Highest eigenvalues
    1.864503    2.249207    2.333577    2.750360    2.758050    8.784693


........................................................................
.............................. CYCLE   21 ..............................
........................................................................

 iter      E             dE          RMSdq      gap      omega  full diag
   1    -42.6092404 -0.426092E+02  0.221E-01    1.64       0.0  T
   2    -42.6094298 -0.189423E-03  0.145E-01    1.67       1.0  T
   3    -42.6098730 -0.443132E-03  0.786E-02    1.66       1.0  T
   4    -42.6099363 -0.633392E-04  0.331E-02    1.66       1.0  T
   5    -42.6099534 -0.171234E-04  0.596E-03    1.66       3.4  T
   6    -42.6099538 -0.399734E-06  0.247E-03    1.66       8.1  T
   7    -42.6099539 -0.379995E-07  0.133E-03    1.66      15.0  T
   8    -42.6099539 -0.127427E-07  0.405E-04    1.66      49.3  T
   9    -42.6099539 -0.198246E-08  0.232E-04    1.66      86.1  T
     SCC iter.                  ...        0 min,  0.011 sec
     gradient                   ...        0 min,  0.011 sec
 * total energy  :   -42.0245892 Eh     change       -0.3960522E-02 Eh
   gradient norm :     0.1020771 Eh/α   predicted     0.0000000E+00 (-100.00%)
   displ. norm   :     0.5075493 α      lambda       -0.2015809E-01
   maximum displ.:     0.2730683 α      in ANC's #15, #14, #9, ...

........................................................................
.............................. CYCLE   22 ..............................
........................................................................

 iter      E             dE          RMSdq      gap      omega  full diag
   1    -42.6442746 -0.426443E+02  0.346E-01    1.79       0.0  T
   2    -42.6444135 -0.138848E-03  0.225E-01    1.65       1.0  T
   3    -42.6447527 -0.339248E-03  0.152E-01    1.77       1.0  T
   4    -42.6450600 -0.307330E-03  0.332E-02    1.71       1.0  T
   5    -42.6450873 -0.272665E-04  0.889E-03    1.72       2.3  T
   6    -42.6450880 -0.739594E-06  0.549E-03    1.72       3.6  T
   7    -42.6450886 -0.540268E-06  0.179E-03    1.72      11.2  T
   8    -42.6450886 -0.307610E-07  0.624E-04    1.72      32.1  T
   9    -42.6450886 -0.445134E-08  0.332E-04    1.72      60.3  T
     SCC iter.                  ...        0 min,  0.011 sec
     gradient                   ...        0 min,  0.011 sec
 * total energy  :   -42.0396594 Eh     change       -0.1507013E-01 Eh
   gradient norm :     0.0327385 Eh/α   predicted    -0.1282285E-01 ( -14.91%)
   displ. norm   :     0.5996648 α      lambda       -0.1097826E-01
   maximum displ.:     0.3272488 α      in ANC's #9, #15, #14, ...

........................................................................
.............................. CYCLE   23 ..............................
........................................................................

 iter      E             dE          RMSdq      gap      omega  full diag
   1    -42.6582958 -0.426583E+02  0.283E-01    1.79       0.0  T
   2    -42.6583189 -0.230466E-04  0.173E-01    1.74       1.0  T
   3    -42.6581197  0.199150E-03  0.130E-01    1.80       1.0  T
   4    -42.6585000 -0.380332E-03  0.161E-02    1.76       1.2  T
   5    -42.6585061 -0.607377E-05  0.679E-03    1.77       2.9  T
   6    -42.6585065 -0.417489E-06  0.377E-03    1.77       5.3  T
   7    -42.6585068 -0.265546E-06  0.110E-03    1.77      18.2  T
   8    -42.6585068 -0.186345E-07  0.399E-04    1.77      50.2  T
   9    -42.6585068 -0.168981E-08  0.240E-04    1.77      83.3  T
     SCC iter.                  ...        0 min,  0.011 sec
     gradient                   ...        0 min,  0.011 sec
 * total energy  :   -42.0477529 Eh     change       -0.8093477E-02 Eh
   gradient norm :     0.0291479 Eh/α   predicted    -0.7463011E-02 (  -7.79%)
   displ. norm   :     0.5996584 α      lambda       -0.6301096E-02
   maximum displ.:     0.3742692 α      in ANC's #9, #8, #15, ...

........................................................................
.............................. CYCLE   24 ..............................
........................................................................

 iter      E             dE          RMSdq      gap      omega  full diag
   1    -42.6613283 -0.426613E+02  0.243E-01    1.82       0.0  T
   2    -42.6614066 -0.783484E-04  0.149E-01    1.81       1.0  T
   3    -42.6613538  0.528655E-04  0.963E-02    1.82       1.0  T
   4    -42.6614793 -0.125481E-03  0.285E-02    1.81       1.0  T
   5    -42.6615079 -0.286869E-04  0.575E-03    1.82       3.5  T
   6    -42.6615083 -0.326547E-06  0.314E-03    1.81       6.4  T
   7    -42.6615084 -0.115496E-06  0.145E-03    1.82      13.8  T
   8    -42.6615084 -0.432010E-07  0.393E-04    1.82      50.9  T
   9    -42.6615084 -0.148682E-08  0.175E-04    1.82     114.0  T
     SCC iter.                  ...        0 min,  0.011 sec
     gradient                   ...        0 min,  0.011 sec
 * total energy  :   -42.0525723 Eh     change       -0.4819486E-02 Eh
   gradient norm :     0.0332053 Eh/α   predicted    -0.4283474E-02 ( -11.12%)
   displ. norm   :     0.6095668 α      lambda       -0.4701050E-02
   maximum displ.:     0.3943735 α      in ANC's #9, #8, #14, ...

........................................................................
.............................. CYCLE   25 ..............................
........................................................................

 iter      E             dE          RMSdq      gap      omega  full diag
   1    -42.6604149 -0.426604E+02  0.251E-01    1.86       0.0  T
   2    -42.6605182 -0.103292E-03  0.156E-01    1.87       1.0  T
   3    -42.6604840  0.342092E-04  0.996E-02    1.86       1.0  T
   4    -42.6605966 -0.112611E-03  0.324E-02    1.86       1.0  T
   5    -42.6606339 -0.373035E-04  0.701E-03    1.87       2.9  T
   6    -42.6606346 -0.741928E-06  0.341E-03    1.87       5.9  T
   7    -42.6606347 -0.965745E-07  0.183E-03    1.87      10.9  T
   8    -42.6606348 -0.584365E-07  0.539E-04    1.87      37.1  T
   9    -42.6606348 -0.501804E-08  0.187E-04    1.87     106.9  T
     SCC iter.                  ...        0 min,  0.011 sec
     gradient                   ...        0 min,  0.011 sec
 * total energy  :   -42.0556324 Eh     change       -0.3060014E-02 Eh
   gradient norm :     0.0257739 Eh/α   predicted    -0.3223939E-02 (   5.36%)
   displ. norm   :     0.5679597 α      lambda       -0.3913283E-02
   maximum displ.:     0.3279903 α      in ANC's #9, #8, #7, ...

........................................................................
.............................. CYCLE   26 ..............................
........................................................................

 iter      E             dE          RMSdq      gap      omega  full diag
   1    -42.6582556 -0.426583E+02  0.294E-01    1.84       0.0  T
   2    -42.6584093 -0.153647E-03  0.180E-01    1.88       1.0  T
   3    -42.6583417  0.676192E-04  0.112E-01    1.83       1.0  T
   4    -42.6584602 -0.118578E-03  0.420E-02    1.87       1.0  T
   5    -42.6585247 -0.644633E-04  0.851E-03    1.86       2.3  T
   6    -42.6585257 -0.104585E-05  0.406E-03    1.86       4.9  T
   7    -42.6585259 -0.113715E-06  0.213E-03    1.86       9.4  T
   8    -42.6585259 -0.740667E-07  0.698E-04    1.86      28.7  T
   9    -42.6585259 -0.106383E-07  0.212E-04    1.86      94.2  T
     SCC iter.                  ...        0 min,  0.011 sec
     gradient                   ...        0 min,  0.011 sec
 * total energy  :   -42.0568291 Eh     change       -0.1196725E-02 Eh
   gradient norm :     0.0374839 Eh/α   predicted    -0.2587883E-02 ( 116.25%)
   displ. norm   :     0.2154981 α      lambda       -0.2365073E-02
   maximum displ.:     0.1191753 α      in ANC's #7, #6, #9, ...

........................................................................
.............................. CYCLE   27 ..............................
........................................................................

 iter      E             dE          RMSdq      gap      omega  full diag
   1    -42.6648778 -0.426649E+02  0.162E-01    1.89       0.0  T
   2    -42.6649027 -0.249453E-04  0.103E-01    1.81       1.0  T
   3    -42.6648575  0.452558E-04  0.780E-02    1.88       1.0  T
   4    -42.6649981 -0.140655E-03  0.133E-02    1.84       1.5  T
   5    -42.6649989 -0.777276E-06  0.475E-03    1.85       4.2  T
   6    -42.6649994 -0.526258E-06  0.229E-03    1.85       8.7  T
   7    -42.6649995 -0.715827E-07  0.112E-03    1.85      17.8  T
   8    -42.6649995 -0.187296E-07  0.234E-04    1.85      85.5  T
   9    -42.6649995 -0.543672E-09  0.123E-04    1.85     162.2  T
     SCC iter.                  ...        0 min,  0.011 sec
     gradient                   ...        0 min,  0.011 sec
 * total energy  :   -42.0581402 Eh     change       -0.1311077E-02 Eh
   gradient norm :     0.0371226 Eh/α   predicted    -0.1237455E-02 (  -5.62%)
   displ. norm   :     0.1296004 α      lambda       -0.8745709E-03
   maximum displ.:     0.0777229 α      in ANC's #6, #5, #17, ...

........................................................................
.............................. CYCLE   28 ..............................
........................................................................

 iter      E             dE          RMSdq      gap      omega  full diag
   1    -42.6648559 -0.426649E+02  0.131E-01    1.79       0.0  T
   2    -42.6648988 -0.428661E-04  0.827E-02    1.82       1.0  T
   3    -42.6649376 -0.388021E-04  0.522E-02    1.79       1.0  T
   4    -42.6649623 -0.247066E-04  0.236E-02    1.81       1.0  T
   5    -42.6649782 -0.158976E-04  0.479E-03    1.80       4.2  T
   6    -42.6649786 -0.423478E-06  0.209E-03    1.80       9.6  T
   7    -42.6649786 -0.590086E-07  0.982E-04    1.80      20.4  T
   8    -42.6649787 -0.919026E-08  0.445E-04    1.80      45.0  T
     SCC iter.                  ...        0 min,  0.010 sec
     gradient                   ...        0 min,  0.011 sec
 * total energy  :   -42.0587894 Eh     change       -0.6492942E-03 Eh
   gradient norm :     0.0176624 Eh/α   predicted    -0.4446368E-03 ( -31.52%)
   displ. norm   :     0.2317337 α      lambda       -0.1029060E-02
   maximum displ.:     0.1440689 α      in ANC's #6, #5, #17, ...

........................................................................
.............................. CYCLE   29 ..............................
........................................................................

 iter      E             dE          RMSdq      gap      omega  full diag
   1    -42.6649805 -0.426650E+02  0.224E-01    1.74       0.0  T
   2    -42.6651380 -0.157514E-03  0.129E-01    1.73       1.0  T
   3    -42.6651633 -0.253460E-04  0.848E-02    1.73       1.0  T
   4    -42.6652463 -0.829554E-04  0.311E-02    1.73       1.0  T
   5    -42.6652735 -0.272798E-04  0.728E-03    1.73       2.7  T
   6    -42.6652744 -0.877157E-06  0.315E-03    1.73       6.4  T
   7    -42.6652745 -0.481546E-07  0.196E-03    1.73      10.2  T
   8    -42.6652745 -0.708041E-07  0.749E-04    1.73      26.7  T
   9    -42.6652746 -0.144875E-07  0.190E-04    1.73     105.5  T
     SCC iter.                  ...        0 min,  0.011 sec
     gradient                   ...        0 min,  0.011 sec
 * total energy  :   -42.0595234 Eh     change       -0.7339551E-03 Eh
   gradient norm :     0.0195739 Eh/α   predicted    -0.5421629E-03 ( -26.13%)
   displ. norm   :     0.2342005 α      lambda       -0.8416997E-03
   maximum displ.:     0.1406026 α      in ANC's #6, #5, #12, ...

........................................................................
.............................. CYCLE   30 ..............................
........................................................................

 iter      E             dE          RMSdq      gap      omega  full diag
   1    -42.6632077 -0.426632E+02  0.222E-01    1.67       0.0  T
   2    -42.6633835 -0.175847E-03  0.128E-01    1.66       1.0  T
   3    -42.6634179 -0.343602E-04  0.823E-02    1.66       1.0  T
   4    -42.6634818 -0.639212E-04  0.305E-02    1.66       1.0  T
   5    -42.6635109 -0.290355E-04  0.688E-03    1.66       2.9  T
   6    -42.6635116 -0.782939E-06  0.305E-03    1.66       6.6  T
   7    -42.6635116  0.907604E-08  0.204E-03    1.66       9.8  T
   8    -42.6635117 -0.916615E-07  0.783E-04    1.66      25.6  T
   9    -42.6635117 -0.175982E-07  0.194E-04    1.66     103.0  T
     SCC iter.                  ...        0 min,  0.011 sec
     gradient                   ...        0 min,  0.011 sec
 * total energy  :   -42.0601602 Eh     change       -0.6368123E-03 Eh
   gradient norm :     0.0235017 Eh/α   predicted    -0.4439344E-03 ( -30.29%)
   displ. norm   :     0.3076018 α      lambda       -0.1137324E-02
   maximum displ.:     0.1782864 α      in ANC's #6, #12, #5, ...

........................................................................
.............................. CYCLE   31 ..............................
........................................................................

 iter      E             dE          RMSdq      gap      omega  full diag
   1    -42.6599676 -0.426600E+02  0.277E-01    1.60       0.0  T
   2    -42.6601911 -0.223499E-03  0.158E-01    1.55       1.0  T
   3    -42.6601264  0.646292E-04  0.916E-02    1.61       1.0  T
   4    -42.6601554 -0.289535E-04  0.556E-02    1.53       1.0  T
   5    -42.6602655 -0.110130E-03  0.148E-02    1.58       1.4  T
   6    -42.6602723 -0.677690E-05  0.548E-03    1.57       3.7  T
   7    -42.6602727 -0.395532E-06  0.259E-03    1.57       7.7  T
   8    -42.6602727 -0.640008E-07  0.778E-04    1.57      25.7  T
   9    -42.6602728 -0.124813E-07  0.311E-04    1.57      64.3  T
     SCC iter.                  ...        0 min,  0.011 sec
     gradient                   ...        0 min,  0.011 sec
 * total energy  :   -42.0609154 Eh     change       -0.7551607E-03 Eh
   gradient norm :     0.0249758 Eh/α   predicted    -0.6224780E-03 ( -17.57%)
   displ. norm   :     0.2746453 α      lambda       -0.9568782E-03
   maximum displ.:     0.1814875 α      in ANC's #12, #6, #15, ...

........................................................................
.............................. CYCLE   32 ..............................
........................................................................

 iter      E             dE          RMSdq      gap      omega  full diag
   1    -42.6552833 -0.426553E+02  0.196E-01    1.50       0.0  T
   2    -42.6553654 -0.821535E-04  0.120E-01    1.52       1.0  T
   3    -42.6553027  0.627500E-04  0.866E-02    1.47       1.0  T
   4    -42.6553721 -0.694189E-04  0.475E-02    1.54       1.0  T
   5    -42.6554548 -0.826795E-04  0.125E-02    1.50       1.6  T
   6    -42.6554600 -0.515599E-05  0.399E-03    1.51       5.0  T
   7    -42.6554602 -0.219364E-06  0.180E-03    1.50      11.1  T
   8    -42.6554602 -0.213029E-07  0.621E-04    1.50      32.2  T
   9    -42.6554602 -0.982761E-08  0.185E-04    1.50     107.9  T
     SCC iter.                  ...        0 min,  0.011 sec
     gradient                   ...        0 min,  0.011 sec
 * total energy  :   -42.0614613 Eh     change       -0.5458817E-03 Eh
   gradient norm :     0.0170130 Eh/α   predicted    -0.5145321E-03 (  -5.74%)
   displ. norm   :     0.1344796 α      lambda       -0.5881697E-03
   maximum displ.:     0.0629751 α      in ANC's #5, #6, #12, ...

........................................................................
.............................. CYCLE   33 ..............................
........................................................................

 iter      E             dE          RMSdq      gap      omega  full diag
   1    -42.6577851 -0.426578E+02  0.118E-01    1.54       0.0  T
   2    -42.6577716  0.135034E-04  0.790E-02    1.49       1.0  T
   3    -42.6577971 -0.255504E-04  0.604E-02    1.55       1.0  T
   4    -42.6578589 -0.617220E-04  0.287E-02    1.50       1.0  T
   5    -42.6578849 -0.260623E-04  0.609E-03    1.52       3.3  T
   6    -42.6578861 -0.113732E-05  0.212E-03    1.52       9.4  T
   7    -42.6578861 -0.389250E-07  0.975E-04    1.52      20.5  T
   8    -42.6578861 -0.805717E-08  0.364E-04    1.52      55.0  T
     SCC iter.                  ...        0 min,  0.010 sec
     gradient                   ...        0 min,  0.011 sec
 * total energy  :   -42.0618440 Eh     change       -0.3827646E-03 Eh
   gradient norm :     0.0131547 Eh/α   predicted    -0.2994045E-03 ( -21.78%)
   displ. norm   :     0.2292124 α      lambda       -0.5450871E-03
   maximum displ.:     0.1487117 α      in ANC's #6, #10, #5, ...

........................................................................
.............................. CYCLE   34 ..............................
........................................................................

 iter      E             dE          RMSdq      gap      omega  full diag
   1    -42.6503146 -0.426503E+02  0.236E-01    1.53       0.0  T
   2    -42.6504463 -0.131674E-03  0.154E-01    1.54       1.0  T
   3    -42.6507388 -0.292471E-03  0.921E-02    1.52       1.0  T
   4    -42.6508054 -0.665945E-04  0.311E-02    1.55       1.0  T
   5    -42.6508353 -0.299134E-04  0.101E-02    1.52       2.0  T
   6    -42.6508383 -0.302791E-05  0.459E-03    1.53       4.4  T
   7    -42.6508387 -0.382608E-06  0.205E-03    1.53       9.8  T
   8    -42.6508388 -0.634756E-07  0.529E-04    1.53      37.8  T
   9    -42.6508388 -0.554353E-08  0.238E-04    1.53      84.0  T
     SCC iter.                  ...        0 min,  0.011 sec
     gradient                   ...        0 min,  0.011 sec
 * total energy  :   -42.0620474 Eh     change       -0.2034101E-03 Eh
   gradient norm :     0.0249068 Eh/α   predicted    -0.2868710E-03 (  41.03%)
   displ. norm   :     0.1711051 α      lambda       -0.8437172E-03
   maximum displ.:     0.1066155 α      in ANC's #5, #6, #4, ...

........................................................................
.............................. CYCLE   35 ..............................
........................................................................

 iter      E             dE          RMSdq      gap      omega  full diag
   1    -42.6599348 -0.426599E+02  0.136E-01    1.57       0.0  T
   2    -42.6600217 -0.868958E-04  0.872E-02    1.56       1.0  T
   3    -42.6600596 -0.378816E-04  0.506E-02    1.59       1.0  T
   4    -42.6600714 -0.118456E-04  0.288E-02    1.56       1.0  T
   5    -42.6600921 -0.206365E-04  0.128E-02    1.58       1.6  T
   6    -42.6600971 -0.502365E-05  0.310E-03    1.57       6.5  T
   7    -42.6600973 -0.234290E-06  0.158E-03    1.57      12.7  T
   8    -42.6600973 -0.191470E-07  0.536E-04    1.57      37.3  T
   9    -42.6600973 -0.439039E-08  0.182E-04    1.57     109.9  T
     SCC iter.                  ...        0 min,  0.011 sec
     gradient                   ...        0 min,  0.011 sec
 * total energy  :   -42.0623360 Eh     change       -0.2885417E-03 Eh
   gradient norm :     0.0204905 Eh/α   predicted    -0.4342159E-03 (  50.49%)
   displ. norm   :     0.1210729 α      lambda       -0.5059012E-03
   maximum displ.:     0.0635091 α      in ANC's #6, #9, #14, ...

........................................................................
.............................. CYCLE   36 ..............................
........................................................................

 iter      E             dE          RMSdq      gap      omega  full diag
   1    -42.6602924 -0.426603E+02  0.908E-02    1.59       0.0  T
   2    -42.6602982 -0.586471E-05  0.574E-02    1.56       1.0  T
   3    -42.6602816  0.166196E-04  0.453E-02    1.60       1.0  T
   4    -42.6603277 -0.460464E-04  0.188E-02    1.56       1.1  T
   5    -42.6603374 -0.975447E-05  0.476E-03    1.58       4.2  T
   6    -42.6603381 -0.645869E-06  0.163E-03    1.57      12.3  T
   7    -42.6603381 -0.369145E-07  0.910E-04    1.57      22.0  T
   8    -42.6603381 -0.849973E-08  0.276E-04    1.57      72.4  T
     SCC iter.                  ...        0 min,  0.010 sec
     gradient                   ...        0 min,  0.011 sec
 * total energy  :   -42.0627243 Eh     change       -0.3882997E-03 Eh
   gradient norm :     0.0103573 Eh/α   predicted    -0.2566616E-03 ( -33.90%)
   displ. norm   :     0.3347601 α      lambda       -0.7256740E-03
   maximum displ.:     0.2360536 α      in ANC's #6, #5, #4, ...

........................................................................
.............................. CYCLE   37 ..............................
........................................................................

 iter      E             dE          RMSdq      gap      omega  full diag
   1    -42.6544888 -0.426545E+02  0.243E-01    1.59       0.0  T
   2    -42.6546088 -0.120003E-03  0.145E-01    1.59       1.0  T
   3    -42.6546405 -0.316183E-04  0.976E-02    1.57       1.0  T
   4    -42.6547705 -0.130066E-03  0.299E-02    1.60       1.0  T
   5    -42.6547986 -0.280785E-04  0.103E-02    1.58       1.9  T
   6    -42.6548011 -0.253825E-05  0.536E-03    1.58       3.7  T
   7    -42.6548018 -0.702780E-06  0.236E-03    1.58       8.5  T
   8    -42.6548019 -0.747024E-07  0.777E-04    1.58      25.7  T
   9    -42.6548019 -0.130462E-07  0.288E-04    1.58      69.5  T
     SCC iter.                  ...        0 min,  0.011 sec
     gradient                   ...        0 min,  0.011 sec
 * total energy  :   -42.0631303 Eh     change       -0.4060486E-03 Eh
   gradient norm :     0.0179724 Eh/α   predicted    -0.4034997E-03 (  -0.63%)
   displ. norm   :     0.1742636 α      lambda       -0.4490199E-03
   maximum displ.:     0.0701794 α      in ANC's #3, #6, #11, ...

........................................................................
.............................. CYCLE   38 ..............................
........................................................................

 iter      E             dE          RMSdq      gap      omega  full diag
   1    -42.6612069 -0.426612E+02  0.109E-01    1.59       0.0  T
   2    -42.6612511 -0.441593E-04  0.815E-02    1.59       1.0  T
   3    -42.6613485 -0.974520E-04  0.413E-02    1.59       1.0  T
   4    -42.6613496 -0.104894E-05  0.173E-02    1.58       1.2  T
   5    -42.6613590 -0.943674E-05  0.399E-03    1.59       5.0  T
   6    -42.6613593 -0.279354E-06  0.222E-03    1.59       9.0  T
   7    -42.6613594 -0.102067E-06  0.128E-03    1.59      15.6  T
   8    -42.6613594 -0.293701E-07  0.428E-04    1.59      46.7  T
   9    -42.6613594 -0.267371E-08  0.163E-04    1.59     122.4  T
     SCC iter.                  ...        0 min,  0.011 sec
     gradient                   ...        0 min,  0.011 sec
 * total energy  :   -42.0633148 Eh     change       -0.1844887E-03 Eh
   gradient norm :     0.0132142 Eh/α   predicted    -0.2313302E-03 (  25.39%)
   displ. norm   :     0.2121189 α      lambda       -0.3382868E-03
   maximum displ.:     0.1292227 α      in ANC's #6, #5, #11, ...

........................................................................
.............................. CYCLE   39 ..............................
........................................................................

 iter      E             dE          RMSdq      gap      omega  full diag
   1    -42.6602844 -0.426603E+02  0.129E-01    1.64       0.0  T
   2    -42.6603000 -0.155651E-04  0.816E-02    1.59       1.0  T
   3    -42.6602815  0.184240E-04  0.615E-02    1.65       1.0  T
   4    -42.6603342 -0.526188E-04  0.303E-02    1.60       1.0  T
   5    -42.6603670 -0.328759E-04  0.455E-03    1.62       4.4  T
   6    -42.6603675 -0.422889E-06  0.216E-03    1.62       9.3  T
   7    -42.6603675 -0.155529E-07  0.949E-04    1.62      21.1  T
   8    -42.6603675 -0.204463E-07  0.326E-04    1.62      61.4  T
     SCC iter.                  ...        0 min,  0.010 sec
     gradient                   ...        0 min,  0.011 sec
 * total energy  :   -42.0635452 Eh     change       -0.2303988E-03 Eh
   gradient norm :     0.0142892 Eh/α   predicted    -0.1767603E-03 ( -23.28%)
   displ. norm   :     0.2458694 α      lambda       -0.3645931E-03
   maximum displ.:     0.1137017 α      in ANC's #6, #2, #3, ...

........................................................................
.............................. CYCLE   40 ..............................
........................................................................

 iter      E             dE          RMSdq      gap      omega  full diag
   1    -42.6598667 -0.426599E+02  0.122E-01    1.62       0.0  T
   2    -42.6598757 -0.899598E-05  0.762E-02    1.64       1.0  T
   3    -42.6598312  0.445161E-04  0.583E-02    1.60       1.0  T
   4    -42.6599080 -0.768366E-04  0.209E-02    1.64       1.0  T
   5    -42.6599224 -0.144107E-04  0.599E-03    1.62       3.3  T
   6    -42.6599237 -0.124938E-05  0.187E-03    1.63      10.7  T
   7    -42.6599237 -0.286580E-07  0.949E-04    1.63      21.1  T
   8    -42.6599237 -0.628248E-08  0.429E-04    1.63      46.6  T
     SCC iter.                  ...        0 min,  0.010 sec
     gradient                   ...        0 min,  0.011 sec
 * total energy  :   -42.0638005 Eh     change       -0.2552837E-03 Eh
   gradient norm :     0.0082899 Eh/α   predicted    -0.1933204E-03 ( -24.27%)
   displ. norm   :     0.3781258 α      lambda       -0.4537879E-03
   maximum displ.:     0.1849326 α      in ANC's #2, #3, #9, ...

........................................................................
.............................. CYCLE   41 ..............................
........................................................................

 iter      E             dE          RMSdq      gap      omega  full diag
   1    -42.6604979 -0.426605E+02  0.154E-01    1.64       0.0  T
   2    -42.6605040 -0.616375E-05  0.903E-02    1.63       1.0  T
   3    -42.6604264  0.776029E-04  0.516E-02    1.66       1.0  T
   4    -42.6605139 -0.874723E-04  0.782E-03    1.64       2.6  T
   5    -42.6605152 -0.130836E-05  0.366E-03    1.64       5.5  T
   6    -42.6605154 -0.232061E-06  0.227E-03    1.64       8.8  T
   7    -42.6605155 -0.950886E-07  0.874E-04    1.64      22.9  T
   8    -42.6605155 -0.108284E-07  0.272E-04    1.64      73.5  T
     SCC iter.                  ...        0 min,  0.010 sec
     gradient                   ...        0 min,  0.011 sec
 * total energy  :   -42.0641806 Eh     change       -0.3801378E-03 Eh
   gradient norm :     0.0128041 Eh/α   predicted    -0.2593383E-03 ( -31.78%)
   displ. norm   :     0.5999880 α      lambda       -0.9259508E-03
   maximum displ.:     0.3254619 α      in ANC's #2, #3, #9, ...

........................................................................
.............................. CYCLE   42 ..............................
........................................................................

 iter      E             dE          RMSdq      gap      omega  full diag
   1    -42.6638399 -0.426638E+02  0.213E-01    1.63       0.0  T
   2    -42.6638834 -0.435114E-04  0.123E-01    1.63       1.0  T
   3    -42.6638040  0.793668E-04  0.771E-02    1.64       1.0  T
   4    -42.6639169 -0.112858E-03  0.161E-02    1.63       1.2  T
   5    -42.6639251 -0.819727E-05  0.470E-03    1.63       4.3  T
   6    -42.6639252 -0.124558E-06  0.308E-03    1.64       6.5  T
   7    -42.6639253 -0.139442E-06  0.172E-03    1.63      11.6  T
   8    -42.6639254 -0.695300E-07  0.511E-04    1.63      39.1  T
   9    -42.6639254 -0.496980E-08  0.259E-04    1.63      77.1  T
     SCC iter.                  ...        0 min,  0.011 sec
     gradient                   ...        0 min,  0.011 sec
 * total energy  :   -42.0648619 Eh     change       -0.6813009E-03 Eh
   gradient norm :     0.0183638 Eh/α   predicted    -0.6296463E-03 (  -7.58%)
   displ. norm   :     0.5710425 α      lambda       -0.8264020E-03
   maximum displ.:     0.3076251 α      in ANC's #2, #3, #9, ...
 * RMSD in coord.:     0.9427924 α      energy gain  -0.4423321E-01 Eh

generating ANC from model Hessian ...
Using Lindh-Hessian (1995)
 Shifting diagonal of input Hessian by    9.9048066138057670E-003
 Lowest  eigenvalues of input Hessian
    0.000000    0.000000    0.000000    0.000000    0.000000    0.000000
    0.010000    0.010712    0.010894    0.011490    0.012068    0.012272
    0.015725    0.016767    0.018365    0.018965    0.021439    0.024164
 Highest eigenvalues
    1.865394    2.218408    2.293456    2.795849    2.891286    8.758022


........................................................................
.............................. CYCLE   43 ..............................
........................................................................

 iter      E             dE          RMSdq      gap      omega  full diag
   1    -42.6576009 -0.426576E+02  0.219E-01    1.63       0.0  T
   2    -42.6576550 -0.541630E-04  0.128E-01    1.61       1.0  T
   3    -42.6574938  0.161182E-03  0.909E-02    1.62       1.0  T
   4    -42.6577048 -0.210927E-03  0.203E-02    1.62       1.0  T
   5    -42.6577142 -0.947237E-05  0.101E-02    1.61       2.0  T
   6    -42.6577176 -0.333109E-05  0.330E-03    1.62       6.1  T
   7    -42.6577178 -0.180529E-06  0.174E-03    1.61      11.5  T
   8    -42.6577178 -0.393936E-07  0.681E-04    1.62      29.4  T
   9    -42.6577178 -0.981997E-08  0.258E-04    1.62      77.4  T
     SCC iter.                  ...        0 min,  0.011 sec
     gradient                   ...        0 min,  0.011 sec
 * total energy  :   -42.0653485 Eh     change       -0.4865685E-03 Eh
   gradient norm :     0.0245370 Eh/α   predicted     0.0000000E+00 (-100.00%)
   displ. norm   :     0.1984300 α      lambda       -0.1430158E-02
   maximum displ.:     0.1308842 α      in ANC's #10, #9, #5, ...

........................................................................
.............................. CYCLE   44 ..............................
........................................................................

 iter      E             dE          RMSdq      gap      omega  full diag
   1    -42.6637434 -0.426637E+02  0.225E-01    1.65       0.0  T
   2    -42.6637596 -0.162588E-04  0.141E-01    1.61       1.0  T
   3    -42.6636051  0.154579E-03  0.105E-01    1.66       1.0  T
   4    -42.6638744 -0.269323E-03  0.335E-02    1.61       1.0  T
   5    -42.6639162 -0.418017E-04  0.813E-03    1.63       2.5  T
   6    -42.6639180 -0.179227E-05  0.311E-03    1.63       6.4  T
   7    -42.6639180 -0.624580E-07  0.165E-03    1.63      12.1  T
   8    -42.6639181 -0.325301E-07  0.504E-04    1.63      39.7  T
   9    -42.6639181 -0.541246E-08  0.208E-04    1.63      96.3  T
     SCC iter.                  ...        0 min,  0.011 sec
     gradient                   ...        0 min,  0.011 sec
 * total energy  :   -42.0661620 Eh     change       -0.8135261E-03 Eh
   gradient norm :     0.0123590 Eh/α   predicted    -0.7438567E-03 (  -8.56%)
   displ. norm   :     0.2593570 α      lambda       -0.8315229E-03
   maximum displ.:     0.1535903 α      in ANC's #6, #1, #10, ...

........................................................................
.............................. CYCLE   45 ..............................
........................................................................

 iter      E             dE          RMSdq      gap      omega  full diag
   1    -42.6662097 -0.426662E+02  0.212E-01    1.65       0.0  T
   2    -42.6662385 -0.288525E-04  0.131E-01    1.64       1.0  T
   3    -42.6660936  0.144885E-03  0.864E-02    1.65       1.0  T
   4    -42.6663003 -0.206685E-03  0.166E-02    1.64       1.2  T
   5    -42.6663075 -0.720223E-05  0.720E-03    1.64       2.8  T
   6    -42.6663084 -0.926264E-06  0.399E-03    1.64       5.0  T
   7    -42.6663087 -0.286358E-06  0.167E-03    1.64      12.0  T
   8    -42.6663088 -0.527989E-07  0.523E-04    1.64      38.2  T
   9    -42.6663088 -0.675310E-08  0.192E-04    1.64     104.3  T
     SCC iter.                  ...        0 min,  0.011 sec
     gradient                   ...        0 min,  0.011 sec
 * total energy  :   -42.0658431 Eh     change        0.3188792E-03 Eh
   gradient norm :     0.0176562 Eh/α   predicted    -0.4437323E-03 (-239.15%)
   displ. norm   :     0.1499698 α      lambda       -0.1304268E-02
   maximum displ.:     0.0868895 α      in ANC's #1, #6, #2, ...

........................................................................
.............................. CYCLE   46 ..............................
........................................................................

 iter      E             dE          RMSdq      gap      omega  full diag
   1    -42.6702109 -0.426702E+02  0.142E-01    1.67       0.0  T
   2    -42.6701682  0.426617E-04  0.105E-01    1.61       1.0  T
   3    -42.6702385 -0.703303E-04  0.731E-02    1.68       1.0  T
   4    -42.6703069 -0.683424E-04  0.330E-02    1.63       1.0  T
   5    -42.6703481 -0.412520E-04  0.498E-03    1.65       4.0  T
   6    -42.6703488 -0.644780E-06  0.212E-03    1.64       9.4  T
   7    -42.6703488 -0.186463E-07  0.998E-04    1.64      20.0  T
   8    -42.6703488 -0.163547E-07  0.259E-04    1.64      77.2  T
     SCC iter.                  ...        0 min,  0.010 sec
     gradient                   ...        0 min,  0.011 sec
 * total energy  :   -42.0665668 Eh     change       -0.7236909E-03 Eh
   gradient norm :     0.0110191 Eh/α   predicted    -0.6668226E-03 (  -7.86%)
   displ. norm   :     0.1554777 α      lambda       -0.2704147E-03
   maximum displ.:     0.1003360 α      in ANC's #5, #2, #7, ...

........................................................................
.............................. CYCLE   47 ..............................
........................................................................

 iter      E             dE          RMSdq      gap      omega  full diag
   1    -42.6677372 -0.426677E+02  0.594E-02    1.63       0.0  T
   2    -42.6677277  0.954590E-05  0.415E-02    1.66       1.0  T
   3    -42.6677171  0.105330E-04  0.352E-02    1.62       1.0  T
   4    -42.6677511 -0.339748E-04  0.724E-03    1.64       2.8  T
   5    -42.6677524 -0.135768E-05  0.165E-03    1.64      12.1  T
   6    -42.6677525 -0.565952E-07  0.843E-04    1.64      23.7  T
   7    -42.6677525 -0.796793E-08  0.310E-04    1.64      64.5  T
     SCC iter.                  ...        0 min,  0.009 sec
     gradient                   ...        0 min,  0.011 sec
 * total energy  :   -42.0667872 Eh     change       -0.2203581E-03 Eh
   gradient norm :     0.0038995 Eh/α   predicted    -0.1384775E-03 ( -37.16%)
   displ. norm   :     0.3367501 α      lambda       -0.4245068E-03
   maximum displ.:     0.2103708 α      in ANC's #5, #2, #7, ...

........................................................................
.............................. CYCLE   48 ..............................
........................................................................

 iter      E             dE          RMSdq      gap      omega  full diag
   1    -42.6653196 -0.426653E+02  0.108E-01    1.64       0.0  T
   2    -42.6653266 -0.697926E-05  0.628E-02    1.64       1.0  T
   3    -42.6652871  0.394690E-04  0.382E-02    1.64       1.0  T
   4    -42.6653341 -0.469778E-04  0.652E-03    1.64       3.1  T
   5    -42.6653349 -0.850975E-06  0.349E-03    1.64       5.7  T
   6    -42.6653352 -0.279598E-06  0.160E-03    1.64      12.5  T
   7    -42.6653353 -0.315463E-07  0.844E-04    1.64      23.7  T
   8    -42.6653353 -0.211514E-07  0.275E-04    1.64      72.7  T
     SCC iter.                  ...        0 min,  0.010 sec
     gradient                   ...        0 min,  0.011 sec
 * total energy  :   -42.0671532 Eh     change       -0.3660112E-03 Eh
   gradient norm :     0.0080869 Eh/α   predicted    -0.2363237E-03 ( -35.43%)
   displ. norm   :     0.5348389 α      lambda       -0.5926647E-03
   maximum displ.:     0.3291389 α      in ANC's #5, #2, #6, ...

........................................................................
.............................. CYCLE   49 ..............................
........................................................................

 iter      E             dE          RMSdq      gap      omega  full diag
   1    -42.6627766 -0.426628E+02  0.161E-01    1.67       0.0  T
   2    -42.6627682  0.835079E-05  0.990E-02    1.62       1.0  T
   3    -42.6625213  0.246877E-03  0.916E-02    1.71       1.0  T
   4    -42.6628175 -0.296127E-03  0.175E-02    1.64       1.1  T
   5    -42.6628263 -0.886592E-05  0.721E-03    1.65       2.8  T
   6    -42.6628280 -0.164702E-05  0.218E-03    1.65       9.2  T
   7    -42.6628280 -0.644506E-08  0.108E-03    1.65      18.5  T
   8    -42.6628280 -0.180071E-07  0.379E-04    1.65      52.8  T
   9    -42.6628280 -0.247095E-08  0.175E-04    1.65     114.4  T
     SCC iter.                  ...        0 min,  0.011 sec
     gradient                   ...        0 min,  0.011 sec
 * total energy  :   -42.0676158 Eh     change       -0.4626279E-03 Eh
   gradient norm :     0.0151550 Eh/α   predicted    -0.3811001E-03 ( -17.62%)
   displ. norm   :     0.4950647 α      lambda       -0.4870578E-03
   maximum displ.:     0.3106846 α      in ANC's #2, #5, #6, ...

........................................................................
.............................. CYCLE   50 ..............................
........................................................................

 iter      E             dE          RMSdq      gap      omega  full diag
   1    -42.6631483 -0.426631E+02  0.142E-01    1.69       0.0  T
   2    -42.6631265  0.217802E-04  0.899E-02    1.63       1.0  T
   3    -42.6629137  0.212783E-03  0.879E-02    1.72       1.0  T
   4    -42.6631867 -0.272932E-03  0.145E-02    1.66       1.4  T
   5    -42.6631922 -0.556979E-05  0.515E-03    1.66       3.9  T
   6    -42.6631929 -0.622818E-06  0.214E-03    1.66       9.4  T
   7    -42.6631929 -0.314674E-07  0.894E-04    1.66      22.4  T
   8    -42.6631929 -0.104980E-07  0.280E-04    1.66      71.4  T
     SCC iter.                  ...        0 min,  0.010 sec
     gradient                   ...        0 min,  0.011 sec
 * total energy  :   -42.0679891 Eh     change       -0.3732727E-03 Eh
   gradient norm :     0.0171922 Eh/α   predicted    -0.3032177E-03 ( -18.77%)
   displ. norm   :     0.4106013 α      lambda       -0.5113807E-03
   maximum displ.:     0.2679496 α      in ANC's #2, #5, #6, ...

........................................................................
.............................. CYCLE   51 ..............................
........................................................................

 iter      E             dE          RMSdq      gap      omega  full diag
   1    -42.6680272 -0.426680E+02  0.120E-01    1.70       0.0  T
   2    -42.6680034  0.238385E-04  0.779E-02    1.64       1.0  T
   3    -42.6678826  0.120811E-03  0.745E-02    1.72       1.0  T
   4    -42.6680639 -0.181288E-03  0.136E-02    1.67       1.5  T
   5    -42.6680693 -0.541701E-05  0.370E-03    1.67       5.4  T
   6    -42.6680695 -0.190198E-06  0.187E-03    1.67      10.7  T
   7    -42.6680695 -0.207179E-07  0.689E-04    1.67      29.0  T
   8    -42.6680695 -0.944579E-08  0.247E-04    1.67      81.1  T
     SCC iter.                  ...        0 min,  0.010 sec
     gradient                   ...        0 min,  0.011 sec
 * total energy  :   -42.0683696 Eh     change       -0.3804636E-03 Eh
   gradient norm :     0.0066997 Eh/α   predicted    -0.2988063E-03 ( -21.46%)
   displ. norm   :     0.5272045 α      lambda       -0.4279135E-03
[...]
C            0.56525937370814       -0.06663257921817       -0.02434596676086
C            0.04727885777297        1.23415446416355       -0.29003947375214
O            0.62939945826395        2.20430789481231       -0.66761800175393
N           -1.47980450387723        1.46794810364386       -0.02884413159492
C           -1.99220787488835        2.71669963760385       -0.61843095490661
C           -2.20632914444217        0.80758087603169        0.74694621909507
O           -2.79716992600590        0.11902645117790        1.45897918863044
N           -0.76754404455942       -2.14359877805211        0.49274658666978
C           -1.40140093047467       -3.36101889361380        0.26496241796978
H            1.99735508162090        1.02810653363955        1.78644141269954
H            3.58480988623455        0.45404243001308        1.26058551751945
H            2.78480622265821        1.76821520180710        0.38046682673816
H            3.83979928710684       -0.89549419714450       -0.37791721480446
H           -1.19463359367364        3.13484291394491       -1.23203722336364
H           -2.86693910019334        2.50926992418300       -1.23159642837692
H           -2.24817000342907        3.43065597718567        0.16299548733718
H           -0.86305912514138       -4.12999874067020        0.82258757633833
H           -1.43253327174889       -3.62450788746827       -0.79464571186580
H           -2.41406572887990       -3.29942945761123        0.66801718146007
H            1.60208110144350       -2.09141995367885       -1.79003093817332

 Bond Distances (Angstroems)
 ---------------------------
C1-N2=1.4524         C1-H15=1.0894        C1-H16=1.0871        C1-H17=1.0927        N2-C1=1.4524         N2-C3=1.3694         
N2-C6=1.4291         C3-N2=1.3694         C3-N4=1.2574         C3-H18=1.0864        N4-C3=1.2574         N4-H25=1.0138        
C5-C6=1.3482         C5-N13=1.1798        C6-N2=1.4291         C6-C5=1.3482         C6-C7=1.4251         C7-C6=1.4251         
C7-O8=1.1927         C7-N9=1.5668         O8-C7=1.1927         N9-C7=1.5668         N9-C10=1.4729        N9-C11=1.2513        
C10-N9=1.4729        C10-H19=1.0897       C10-H20=1.0882       C10-H21=1.0890       C11-N9=1.2513        C11-O12=1.1533       
O12-C11=1.1533       N13-C5=1.1798        N13-C14=1.3913       C14-N13=1.3913       C14-H22=1.0918       C14-H23=1.0923       
C14-H24=1.0917       H15-C1=1.0894        H16-C1=1.0871        H17-C1=1.0927        H18-C3=1.0864        H19-C10=1.0897       
H20-C10=1.0882       H21-C10=1.0890       H22-C14=1.0918       H23-C14=1.0923       H24-C14=1.0917       H25-N4=1.0138        
 C  H  Rav=1.0898 sigma=0.0021  Rmin=1.0864  Rmax=1.0927    10
 C  C  Rav=1.3867 sigma=0.0384  Rmin=1.3482  Rmax=1.4251     2
 N  H  Rav=1.0138 sigma=0.0000  Rmin=1.0138  Rmax=1.0138     1
 N  C  Rav=1.3745 sigma=0.1168  Rmin=1.1798  Rmax=1.5668     9
 O  C  Rav=1.1730 sigma=0.0197  Rmin=1.1533  Rmax=1.1927     2

 selected bond angles (degree)
 --------------------
H15-C1-N2=109.86               H16-C1-N2=109.64               H16-C1-H15=108.65              H17-C1-N2=111.13               
H17-C1-H15=108.71              H17-C1-H16=108.81              C3-N2-C1=118.14                C6-N2-C1=115.39                
C6-N2-C3=126.33                N4-C3-N2=132.96                H18-C3-N2=111.92               H18-C3-N4=115.13               
H25-N4-C3=120.39               N13-C5-C6=171.71               C5-C6-N2=119.34                C7-C6-N2=115.64                
C7-C6-C5=125.01                O8-C7-C6=128.61                N9-C7-C6=117.35                N9-C7-O8=114.02                
C10-N9-C7=113.51               C11-N9-C7=126.19               C11-N9-C10=119.58              H19-C10-N9=107.22              
H20-C10-N9=110.10              H20-C10-H19=110.13             H21-C10-N9=110.51              H21-C10-H19=108.94             
H21-C10-H20=109.90             

 selected dihedral angles (degree)
 ---------------------------------
C3-N2-C1-H15=212.84           C3-N2-C1-H16=332.17           C3-N2-C1-H17= 92.49           C6-N2-C1-H15= 36.79           
C6-N2-C1-H16=156.13           C6-N2-C1-H17=276.45           N4-C3-N2-C1=184.19            N4-C3-N2-C6=359.75            
H18-C3-N2-C1=  4.70           H18-C3-N2-C6=180.26           H25-N4-C3-N2=  2.06           H25-N4-C3-H18=181.54          
C5-C6-N2-C1=229.89            C5-C6-N2-C3= 54.22            C7-C6-N2-C1= 48.58            C7-C6-N2-C3=232.91            
N2-C6-C5-N13= 60.96           C7-C6-C5-N13=242.40           O8-C7-C6-N2= 13.96            O8-C7-C6-C5=192.57            
N9-C7-C6-N2=195.65            N9-C7-C6-C5= 14.26            C10-N9-C7-C6=193.60           C10-N9-C7-O8= 15.05           
C11-N9-C7-C6= 23.47           C11-N9-C7-O8=204.92           H19-C10-N9-C7=  7.67          H19-C10-N9-C11=178.52         
H20-C10-N9-C7=127.48          H20-C10-N9-C11=298.33         H21-C10-N9-C7=249.07          H21-C10-N9-C11= 59.92         
           -------------------------------------------------
          |                Final Singlepoint                |
           -------------------------------------------------

          ...................................................
          :                      SETUP                      :
          :.................................................:
          :  # basis functions                  67          :
          :  # atomic orbitals                  67          :
          :  # shells                           39          :
          :  # electrons                        74          :
          :  max. iterations                   250          :
          :  Hamiltonian                  GFN2-xTB          :
          :  restarted?                      false          :
          :  GBSA solvation                  false          :
          :  PC potential                    false          :
          :  electronic temp.         5000.0000000     K    :
          :  accuracy                    1.0000000          :
          :  -> integral cutoff          0.2500000E+02      :
          :  -> integral neglect         0.1000000E-07      :
          :  -> SCF convergence          0.1000000E-05 Eh   :
          :  -> wf. convergence          0.1000000E-03 e    :
          :  Broyden damping             0.4000000          :
          ...................................................

 iter      E             dE          RMSdq      gap      omega  full diag
   1    -42.6819952 -0.426820E+02  0.687E-05    1.78       0.0  T
   2    -42.6819952 -0.143245E-10  0.491E-05    1.78     407.2  T
   3    -42.6819952 -0.269225E-10  0.300E-05    1.78     667.7  T

   *** convergence criteria satisfied after 3 iterations ***

         #    Occupation            Energy/Eh            Energy/eV
      -------------------------------------------------------------
         1        2.0000           -0.9460462             -25.7432
       ...           ...                  ...                  ...
        31        1.9994           -0.6143823             -16.7182
        32        1.9992           -0.6095842             -16.5876
        33        1.9990           -0.6068563             -16.5134
        34        1.9985           -0.6003363             -16.3360
        35        1.9847           -0.5632256             -15.3261
        36        1.8621           -0.5273712             -14.3505
        37        1.8027           -0.5211788             -14.1820 (HOMO)
        38        0.2560           -0.4557671             -12.4021 (LUMO)
        39        0.0716           -0.4339940             -11.8096
        40        0.0240           -0.4162944             -11.3279
        41        0.0034           -0.3853918             -10.4870
        42        0.0005           -0.3536661              -9.6237
       ...           ...                  ...                  ...
        67                          1.0116901              27.5295
      -------------------------------------------------------------
                  HL-Gap            0.0654117 Eh            1.7799 eV
             Fermi-level           -0.4861518 Eh          -13.2289 eV

 SCC (total)                   0 d,  0 h,  0 min,  0.020 sec
 SCC setup                      ...        0 min,  0.000 sec (  0.923%)
 Dispersion                     ...        0 min,  0.000 sec (  0.866%)
 classical contributions        ...        0 min,  0.000 sec (  0.326%)
 integral evaluation            ...        0 min,  0.004 sec ( 20.031%)
 iterations                     ...        0 min,  0.004 sec ( 21.793%)
 molecular gradient             ...        0 min,  0.011 sec ( 55.395%)
 printout                       ...        0 min,  0.000 sec (  0.630%)

         :::::::::::::::::::::::::::::::::::::::::::::::::::::
         ::                     SUMMARY                     ::
         :::::::::::::::::::::::::::::::::::::::::::::::::::::
         :: total energy             -42.074057949340 Eh    ::
         :: gradient norm              0.002390145156 Eh/a0 ::
         :: HOMO-LUMO gap              1.779944291713 eV    ::
         ::.................................................::
         :: SCC energy               -42.681995184885 Eh    ::
         :: -> isotropic ES            0.120166661260 Eh    ::
         :: -> anisotropic ES         -0.003358297881 Eh    ::
         :: -> anisotropic XC          0.028522878736 Eh    ::
         :: -> dispersion             -0.020714442718 Eh    ::
         :: repulsion energy           0.607729547641 Eh    ::
         :: add. restraining           0.000010047254 Eh    ::
         :: total charge               1.000000000000 e     ::
         :::::::::::::::::::::::::::::::::::::::::::::::::::::

           -------------------------------------------------
          |                Property Printout                |
           -------------------------------------------------

    * Orbital Energies and Occupations

         #    Occupation            Energy/Eh            Energy/eV
      -------------------------------------------------------------
         1        2.0000           -0.9460462             -25.7432
       ...           ...                  ...                  ...
        25        2.0000           -0.6746481             -18.3581
        26        2.0000           -0.6637556             -18.0617
        27        1.9998           -0.6344578             -17.2645
        28        1.9998           -0.6335709             -17.2403
        29        1.9998           -0.6291119             -17.1190
        30        1.9996           -0.6206098             -16.8877
        31        1.9994           -0.6143823             -16.7182
        32        1.9992           -0.6095842             -16.5876
        33        1.9990           -0.6068563             -16.5134
        34        1.9985           -0.6003363             -16.3360
        35        1.9847           -0.5632256             -15.3261
        36        1.8621           -0.5273712             -14.3505
        37        1.8027           -0.5211788             -14.1820 (HOMO)
        38        0.2560           -0.4557671             -12.4021 (LUMO)
        39        0.0716           -0.4339940             -11.8096
        40        0.0240           -0.4162944             -11.3279
        41        0.0034           -0.3853918             -10.4870
        42        0.0005           -0.3536661              -9.6237
        43        0.0000           -0.3075096              -8.3678
        44        0.0000           -0.2626195              -7.1462
        45                         -0.1585227              -4.3136
        46                         -0.1158564              -3.1526
        47                         -0.0883913              -2.4052
        48                         -0.0435184              -1.1842
       ...                                ...                  ...
        67                          1.0116901              27.5295
      -------------------------------------------------------------
                  HL-Gap            0.0654117 Eh            1.7799 eV
             Fermi-level           -0.4861518 Eh          -13.2289 eV

     #   Z          covCN         q      C6AA      α(0)
     1   6 C        3.704    -0.068    21.968     6.701
     2   7 N        2.738    -0.031    21.842     6.941
     3   6 C        2.762     0.124    25.262     8.231
     4   7 N        1.772    -0.267    27.753     7.801
     5   6 C        1.908     0.085    28.976     8.693
     6   6 C        2.885    -0.004    28.122     8.694
     7   6 C        2.745     0.261    22.607     7.785
     8   8 O        0.857    -0.296    19.708     5.952
     9   7 N        2.711    -0.048    22.163     6.992
    10   6 C        3.711    -0.067    21.925     6.692
    11   6 C        1.798     0.308    24.269     7.962
    12   8 O        0.856    -0.137    17.074     5.540
    13   7 N        1.821    -0.005    22.044     6.957
    14   6 C        3.686    -0.056    21.790     6.683
    15   1 H        0.925     0.070     2.080     2.256
    16   1 H        0.925     0.089     1.893     2.151
    17   1 H        0.924     0.097     1.815     2.107
    18   1 H        0.925     0.099     1.798     2.097
    19   1 H        0.925     0.137     1.481     1.903
    20   1 H        0.925     0.099     1.794     2.094
    21   1 H        0.925     0.102     1.769     2.080
    22   1 H        0.924     0.127     1.555     1.950
    23   1 H        0.924     0.102     1.769     2.080
    24   1 H        0.924     0.122     1.600     1.978
    25   1 H        0.860     0.159     1.344     1.816

 Mol. C6AA /au·bohr⁶  :       6652.714753
 Mol. C8AA /au·bohr⁸  :     152613.155650
 Mol. α(0) /au        :        124.136514


Wiberg/Mayer (AO) data.
largest (>0.10) Wiberg bond orders for each atom

 ---------------------------------------------------------------------------
     #   Z sym  total        # sym  WBO       # sym  WBO       # sym  WBO
 ---------------------------------------------------------------------------
     1   6 C    3.935 --     2 N    0.988    15 H    0.976    16 H    0.969
                            17 H    0.958
     2   7 N    3.412 --     3 C    1.181     6 C    0.998     1 C    0.988
                             4 N    0.139
     3   6 C    3.949 --     4 N    1.788     2 N    1.181    18 H    0.925
     4   7 N    2.907 --     3 C    1.788    25 H    0.934     2 N    0.139
     5   6 C    3.882 --    13 N    2.230     6 C    1.393
     6   6 C    3.865 --     5 C    1.393     7 C    1.170     2 N    0.998
                            13 N    0.114
     7   6 C    3.854 --     8 O    1.788     6 C    1.170     9 N    0.742
     8   8 O    2.165 --     7 C    1.788
     9   7 N    3.567 --    11 C    1.567    10 C    0.915     7 C    0.742
                            12 O    0.222
    10   6 C    3.876 --    20 H    0.972    21 H    0.971    19 H    0.954
                             9 N    0.915
    11   6 C    3.708 --    12 O    2.033     9 N    1.567
    12   8 O    2.350 --    11 C    2.033     9 N    0.222
    13   7 N    3.537 --     5 C    2.230    14 C    1.040     6 C    0.114
    14   6 C    3.928 --    13 N    1.040    23 H    0.949    24 H    0.939
                            22 H    0.934
    15   1 H    0.990 --     1 C    0.976
    16   1 H    0.987 --     1 C    0.969
    17   1 H    0.975 --     1 C    0.958
    18   1 H    0.976 --     3 C    0.925
    19   1 H    0.979 --    10 C    0.954
    20   1 H    0.989 --    10 C    0.972
    21   1 H    0.989 --    10 C    0.971
    22   1 H    0.979 --    14 C    0.934
    23   1 H    0.979 --    14 C    0.949
    24   1 H    0.979 --    14 C    0.939
    25   1 H    0.965 --     4 N    0.934
 ---------------------------------------------------------------------------

Topologies differ in total number of bonds
Writing topology from bond orders to xtbtopo.mol

molecular dipole:
                 x           y           z       tot (Debye)
 q only:       -1.215      -0.607       0.430
   full:       -1.578      -0.493       0.561       4.438
molecular quadrupole (traceless):
                xx          xy          yy          xz          yz          zz
 q only:        5.617      -0.190      12.386       6.591      -2.080     -18.003
  q+dip:        5.768       1.725      10.990       8.774      -1.714     -16.759
   full:        5.527       0.362      10.307       9.987      -0.993     -15.834

           -------------------------------------------------
          |                Geometry Summary                 |
           -------------------------------------------------

      molecular mass/u    :      195.1988581
   center of mass at/Å    :        0.0163792      -0.0182299       0.0278342
  moments of inertia/u·Å² :        0.6326597E+03   0.8585306E+03   0.1311156E+04
rotational constants/cm⁻¹ :        0.2664566E-01   0.1963545E-01   0.1285708E-01

 * 21 selected distances

     #   Z          #   Z                                           value/Å
     1   6 C        2   7 N                                       1.4523858
     2   7 N        3   6 C                                       1.3694121
     3   6 C        4   7 N                                       1.2574019
     5   6 C        6   6 C                                       1.3482210
     6   6 C        7   6 C                                       1.4251120
     7   6 C        8   8 O                                       1.1927397
     9   7 N       10   6 C                                       1.4729395 (max)
     9   7 N       11   6 C                                       1.2513089
    11   6 C       12   8 O                                       1.1533392
     5   6 C       13   7 N                                       1.1797773
    13   7 N       14   6 C                                       1.3913203
     1   6 C       15   1 H                                       1.0894205
     1   6 C       16   1 H                                       1.0870737
     1   6 C       17   1 H                                       1.0927420
     3   6 C       18   1 H                                       1.0863537 (min)
    10   6 C       19   1 H                                       1.0897162
    10   6 C       20   1 H                                       1.0881884
    10   6 C       21   1 H                                       1.0889802
    14   6 C       22   1 H                                       1.0918278
    14   6 C       23   1 H                                       1.0923211
    14   6 C       24   1 H                                       1.0916669

 * 4 distinct bonds (by element types)

   Z      Z             #   av. dist./Å        max./Å        min./Å
   1 H    6 C          10     1.0898290     1.0927420     1.0863537
   6 C    6 C           2     1.3866665     1.4251120     1.3482210
   6 C    7 N           7     1.3392208     1.4729395     1.1797773
   6 C    8 O           2     1.1730394     1.1927397     1.1533392


optimized geometry written to: xtbopt.xyz


           -------------------------------------------------
          | TOTAL ENERGY              -42.074057949340 Eh   |
          | GRADIENT NORM               0.002390145156 Eh/α |
          | HOMO-LUMO GAP               1.779944291713 eV   |
           -------------------------------------------------

------------------------------------------------------------------------
 * finished run on 2024/06/05 at 20:00:10.711     
------------------------------------------------------------------------
 total:
 * wall-time:     0 d,  0 h,  0 min,  2.296 sec
 *  cpu-time:     0 d,  0 h,  0 min,  2.276 sec
 * ratio c/w:     0.991 speedup
 SCF:
 * wall-time:     0 d,  0 h,  0 min,  0.034 sec
 *  cpu-time:     0 d,  0 h,  0 min,  0.034 sec
 * ratio c/w:     0.998 speedup
 ANC optimizer:
 * wall-time:     0 d,  0 h,  0 min,  2.235 sec
 *  cpu-time:     0 d,  0 h,  0 min,  2.231 sec
 * ratio c/w:     0.998 speedup

