25
 energy: -38.343293050249 gnorm: 23.070476160410 xtb: 6.6.1 (8d0f1dd)
C            3.21479777016999        1.15028304119566        0.02940641021250
N            2.30479802741986        0.03639627378968        0.00995475884260
C            2.62048917527148       -1.25733744048290       -0.01934776325181
N            1.49046727276503       -2.00505094640324       -0.01118962456660
C            0.42343355480963       -1.15458944178597        0.02536552582062
C            0.93318616248366        0.13511350542762        0.03861089484890
C            0.06451993425848        1.29144397641931        0.06429819057394
O            0.40140896843768        2.45268668523708        0.08247239245574
N           -1.28755708136136        0.88250237237633        0.05892390214396
C           -2.28785049422419        1.98051901922464        0.07760193252686
C           -1.76776581063957       -0.35842060189871        0.05560416473998
O           -3.43184223444255        1.62566720144865       -0.60488145105696
N           -0.91033079286314       -1.39641661577199        0.04066047448597
C           -1.42792263933015       -2.74837074311419        0.05275750917328
H            3.72648476697117        1.20469707893064        0.99168215790294
H            3.95894957985149        1.04614913935744       -0.75924094208257
H            2.64588631408022        2.06765241262570       -0.11749786843504
H            3.61538475086372       -1.65371124209749       -0.04655598590928
H           -1.78169077166382        2.85747897251279       -0.35949545394869
H           -3.58766733870742        1.73538785817402       -0.85809719590323
H           -2.50115483284983        2.19734498085171        1.13772279286304
H           -1.08744730843881       -3.28111421924373        0.94168137976510
H           -1.11532515311529       -3.28872035823244       -0.84185709697037
H           -2.51340866921015       -2.68700157937122        0.06976498609318
H            1.46058836356410       -3.01435078756978       -0.02717247242325
25
 energy: -42.110701737741 gnorm: 0.375828592134 xtb: 6.6.1 (8d0f1dd)
C            3.21480081933251        1.15028137855430        0.02940828011267
N            2.30479095602463        0.03639992175055        0.00995337749746
C            2.62048693627844       -1.25733471403336       -0.01934643494781
N            1.49046771796768       -2.00505583436265       -0.01118584039324
C            0.42342737985126       -1.15458994656246        0.02536039315610
C            0.93318911553761        0.13511737841208        0.03861106875892
C            0.06453225928707        1.29144014509834        0.06426048303589
O            0.40141359774516        2.45268905080637        0.08247117513092
N           -1.28724585171927        0.88249586832193        0.05903383720669
C           -2.28302031103896        1.98108377031220        0.08150832857229
C           -1.76775695757578       -0.35841222013811        0.05565085672872
O           -3.26559886432322        1.50778704591665       -0.33381725077346
N           -0.91032233867966       -1.39641026116742        0.04066228937010
C           -1.42792581126539       -2.74837302462225        0.05275490421606
H            3.72648570481254        1.20469553843041        0.99168030506683
H            3.95894851446329        1.04614850828301       -0.75924225275985
H            2.64588696039098        2.06765332675244       -0.11749709572550
H            3.61538474575306       -1.65371067078194       -0.04655628840086
H           -1.78193647360653        2.85747484826526       -0.35971676400701
H           -3.75905086632379        1.85260517320276       -1.13309347655904
H           -2.50093536675909        2.19743821236464        1.13785654220088
H           -1.08744646571486       -3.28111563702545        0.94168191811146
H           -1.11532560527602       -3.28871963889568       -0.84185730930931
H           -2.51340868950211       -2.68700103652377        0.06976417501084
H            1.46059040844069       -3.01434864075826       -0.02717360339894
25
 energy: -42.155542209599 gnorm: 0.057342298827 xtb: 6.6.1 (8d0f1dd)
C            3.21918946943482        1.14682995839164        0.03736079990629
N            2.31223424867971        0.03160368425934        0.01346398218203
C            2.62394775845641       -1.26266660346832       -0.01710315191210
N            1.49166109757529       -2.00809733993753       -0.01228758471997
C            0.42774318694655       -1.15465662002771        0.02415334413348
C            0.94453437592814        0.13261288551137        0.04074123659630
C            0.09012621907133        1.29327314619002        0.06985070864732
O            0.42388347101919        2.45519419378162        0.08747315285655
N           -1.25028849117407        0.89337318738510        0.07017693553440
C           -2.25014150842620        2.01248081261304        0.09475188138675
C           -1.75053055445159       -0.34289087343880        0.06044826553215
O           -3.40021333678549        1.45302623699524       -0.35983875812642
N           -0.90610867008536       -1.39123000960606        0.03781978788203
C           -1.43007023150058       -2.74280098398315        0.04500151787359
H            3.72767019252881        1.19947988783490        1.00108133731430
H            3.96349483081576        1.04446763037065       -0.75077956029831
H            2.64865758262047        2.06392121918425       -0.10842580209840
H            3.61727665383319       -1.65995969288677       -0.04303693088625
H           -1.77176355301412        2.87575051728521       -0.38453817960881
H           -3.88976498494432        1.79666317476728       -1.16063672031699
H           -2.41488599231879        2.24438473136054        1.17222703471616
H           -1.09223624620203       -3.28027785265750        0.93263863810036
H           -1.11706712256386       -3.28365889831160       -0.84970387036627
H           -2.51561934325527       -2.68183074294174        0.06037311417571
H            1.45870246191224       -3.01675310707140       -0.03003956060306
25
 energy: -42.158363734661 gnorm: 0.046094471968 xtb: 6.6.1 (8d0f1dd)
C            3.23134018941575        1.14143917768994        0.04564212184565
N            2.32249893758017        0.02764412241620        0.01729477376489
C            2.63340975502679       -1.26746856041827       -0.01279501513104
N            1.49972756889974       -2.01058171120847       -0.01078797403275
C            0.43660265249644       -1.15546692740829        0.02367540029538
C            0.95317362602118        0.13176613281551        0.03893210567981
C            0.09318081057197        1.29302299600114        0.06051260163266
O            0.43075468543082        2.45566938259362        0.07679250619944
N           -1.25243582347934        0.89105583836665        0.06026655983016
C           -2.26828551019354        1.99064794089680        0.09674146055365
C           -1.74406211291285       -0.34587295006472        0.06204740857648
O           -3.45329443166497        1.47874565766077       -0.33374549951967
N           -0.89742310348178       -1.39076602883282        0.03798167557507
C           -1.42618501044902       -2.73895721185721        0.04030667045947
H            3.73752352316436        1.19222240435571        1.01076712161037
H            3.97785455708663        1.04097185907554       -0.74083177753795
H            2.66117381052382        2.05869119898469       -0.09938548379605
H            3.62648491191521       -1.66721994265436       -0.03595452588291
H           -1.82344315618027        2.84094200512689       -0.43763070237283
H           -3.94059856383237        1.83046648125701       -1.13098029562994
H           -2.38370482421759        2.26584498705156        1.16638148110209
H           -1.09282378186673       -3.27947048642901        0.92744008415196
H           -1.11453905165718       -3.27621677596644       -0.85671088426871
H           -2.51145340578289       -2.66952025264845        0.05365736580356
H            1.46495526168588       -3.01935079520439       -0.02844556100791
25
 energy: -42.159881818818 gnorm: 0.038854991008 xtb: 6.6.1 (8d0f1dd)
C            3.24340889138510        1.13627681178260        0.05909364248581
N            2.32946927393105        0.02623715866876        0.02271376823232
C            2.63949709222165       -1.26965383455439       -0.00470064596267
N            1.50509855020378       -2.01112317833234       -0.00773187428449
C            0.44251106561974       -1.15463350285009        0.02001159448659
C            0.95799364583367        0.13340462177828        0.03494386758310
C            0.09233919616181        1.29511369245817        0.04447084113999
O            0.43279273425465        2.45696262266144        0.05596308316145
N           -1.25858642775151        0.89040557970242        0.04183343322439
C           -2.27457066321598        1.97882423859581        0.09476531198852
C           -1.74110825382994       -0.34786778984411        0.05568616126014
O           -3.49868631516234        1.48259033023660       -0.27289586724289
N           -0.89156347969048       -1.38995622054551        0.03262019074641
C           -1.42410008960373       -2.73581563567916        0.02989032614514
H            3.74642911457478        1.18121649732543        1.02642119562279
H            3.99403989743417        1.03635059607728       -0.72383784040988
H            2.67769529472781        2.05614423461606       -0.08502052915986
H            3.63238944170499       -1.67176541352003       -0.02208992917826
H           -1.88303347283632        2.81191193769832       -0.52032006225347
H           -3.98767715575333        1.83502261480071       -1.06638083525912
H           -2.32501324528701        2.30833238812937        1.15281549931651
H           -1.09651346069532       -3.28090308298279        0.91607300992379
H           -1.11259838590291       -3.27005619073282       -0.86864018790284
H           -2.50898362605378       -2.65868298465458        0.04013907199313
H            1.46920189182970       -3.02009694923582       -0.02465160775569
25
 energy: -42.160816681740 gnorm: 0.034534715283 xtb: 6.6.1 (8d0f1dd)
C            3.25033225890083        1.13363554629014        0.06947385223130
N            2.33113435799610        0.02767756442934        0.02643422286912
C            2.64134541768575       -1.26840167084496        0.00419697727917
N            1.50750884419035       -2.01014608631708       -0.00339815513362
C            0.44470955293026       -1.15365729410964        0.01494509578012
C            0.95823343840469        0.13550913683827        0.03103385762097
C            0.08845889815624        1.29620749327327        0.03331367097640
O            0.42808875575990        2.45746439150466        0.03834862286788
N           -1.26573347503268        0.88843954972096        0.02584625353514
C           -2.27239488089783        1.97506925347925        0.08910296649625
C           -1.74154723659779       -0.35109718192262        0.04220596701163
O           -3.52614986954343        1.48135308321066       -0.21139793612170
N           -0.88900467404629       -1.39079847385959        0.02339729779376
C           -1.42289663457929       -2.73591418127884        0.01927019392109
H            3.75113896636295        1.17200082265269        1.03845677014019
H            4.00401773126206        1.03226323430706       -0.71061693659687
H            2.69056530922138        2.05696369744169       -0.07420154811586
H            3.63435983165333       -1.67109061707923       -0.00658875484285
H           -1.92196653481243        2.78472528920529       -0.58250691519126
H           -4.01589023652432        1.83160993834130       -1.00237803208729
H           -2.26875504911117        2.35332853452223        1.13089461822617
H           -1.09908448741155       -3.28268352916553        0.90562489172280
H           -1.11045638570726       -3.26979595693243       -0.87895178264489
H           -2.50752803643443       -2.65518400580731        0.02735205534595
H            1.47194565227487       -3.01923999629996       -0.01868563518264
25
 energy: -42.161925238790 gnorm: 0.030090866603 xtb: 6.6.1 (8d0f1dd)
C            3.25350704947924        1.13273294488317        0.07777548034060
N            2.32859668718273        0.03144025396403        0.02999846959414
C            2.64024607819580       -1.26433314653994        0.01571940747015
N            1.50813734994555       -2.00812705941653        0.00329819913544
C            0.44429484303140       -1.15294184050297        0.00900562953364
C            0.95477675646232        0.13775707467053        0.02699876610422
C            0.08161809848190        1.29579544555625        0.02586189888168
O            0.41688612518559        2.45710781336761        0.02476576587679
N           -1.27507555354598        0.88408705136250        0.01253293753255
C           -2.26465850582100        1.97589536066329        0.08142218532870
C           -1.74505041397987       -0.35665233250019        0.01985857440146
O           -3.54105372172236        1.48180594079718       -0.14203509245549
N           -0.88863321519462       -1.39368480617055        0.00927855085689
C           -1.42165057545402       -2.73934602513061        0.00687792063819
H            3.75371835903195        1.16407776549328        1.04738759886426
H            4.00844692840028        1.02812879168195       -0.70096946858596
H            2.70102766085039        2.06023313136360       -0.06556556922420
H            3.63378963880358       -1.66587142235924        0.01248161941874
H           -1.95545724756761        2.75121048760882       -0.63733264381028
H           -4.02697464251533        1.82882020085937       -0.93175504102325
H           -2.20693338602716        2.40557700265804        1.09643768277874
H           -1.09992661272611       -3.28453809366065        0.89486966720886
H           -1.10732639217190       -3.27551617131137       -0.88922846821840
H           -2.50613061440617       -2.65813497236451        0.01349563029200
H            1.47425682018168       -3.01728485337346       -0.01000808303846
25
 energy: -42.162853932737 gnorm: 0.026504022820 xtb: 6.6.1 (8d0f1dd)
C            3.25003631685360        1.13431998666182        0.08334840054324
N            2.32278396367784        0.03523195611223        0.03475524554735
C            2.63658065289229       -1.25982632863041        0.02778945907145
N            1.50638005351006       -2.00642663139213        0.01029219208505
C            0.44102639315337       -1.15336281392193        0.00540381955312
C            0.94927367075795        0.13829116615443        0.02348613298253
C            0.07596797344714        1.29317789783666        0.02028522586390
O            0.40468235507654        2.45581742336921        0.01842774486143
N           -1.28129020409759        0.87893843782168        0.00655223303622
C           -2.25491252223598        1.98141116848554        0.07326152005391
C           -1.75034219737382       -0.36180988574789       -0.00249010453221
O           -3.54015841851270        1.48421757500759       -0.07575773873275
N           -0.89110931852609       -1.39741193381628       -0.00530808706285
C           -1.42055201956412       -2.74505616448013       -0.00584604048264
H            3.75125722485675        1.16238270041326        1.05228466350689
H            4.00355726038445        1.02736085008949       -0.69660765894449
H            2.70154751893604        2.06407413287195       -0.05948904244960
H            3.63097929758615       -1.65863214678359        0.03115364360843
H           -1.97657577550474        2.71810338466689       -0.68869790614809
H           -4.01844055842623        1.82649218519043       -0.86592169413384
H           -2.14857600298822        2.45506819094042        1.06141428997992
H           -1.09802932844421       -3.28627269878262        0.88444570814477
H           -1.10320054778590       -3.28420083296416       -0.89926185218177
H           -2.50521446503402       -2.66809996961460       -0.00034846794254
H            1.47476019146171       -3.01554910788821       -0.00200006832641
25
 energy: -42.163404230753 gnorm: 0.021788420472 xtb: 6.6.1 (8d0f1dd)
C            3.24226247050565        1.13742709403049        0.08621730758003
N            2.31770151067692        0.03634834005607        0.04054158551501
C            2.63353421672873       -1.25803248401523        0.03987693089563
N            1.50454455530167       -2.00672045342401        0.01798448246731
C            0.43763012958761       -1.15566464525895        0.00412239258316
C            0.94526061362065        0.13613853304996        0.02085542977063
C            0.07383191805016        1.28860737635489        0.01525394503389
O            0.39637580814425        2.45338378026822        0.01511463172396
N           -1.28214011241880        0.87384463196148        0.00021000738116
C           -2.24820147403379        1.98641398224630        0.06473568324141
C           -1.75444840247647       -0.36564345329659       -0.02317820107781
O           -3.53762705540333        1.49573306142935       -0.01853525587670
N           -0.89402894606377       -1.40123763060527       -0.01856092517160
C           -1.41866996552813       -2.75114687124539       -0.01725943130004
H            3.74534236190282        1.16763772294923        1.05376504841002
H            3.99317397595969        1.03134774511735       -0.69635801350940
H            2.69166555297525        2.06603591677605       -0.05612390015596
H            3.62885481285176       -1.65396193169720        0.04992337218047
H           -1.98979568897521        2.68993370964828       -0.73232656055796
H           -4.00758168487967        1.83480070918351       -0.80863865178565
H           -2.09661500257882        2.48938290111168        1.03218889078209
H           -1.09479423857004       -3.28749663763418        0.87578747463628
H           -1.09691210838207       -3.29254162556975       -0.90792564523800
H           -2.50376815597123       -2.68052874946208       -0.01399537203637
H            1.47483642307644       -3.01582248037458        0.00749639240951
25
 energy: -42.163607764434 gnorm: 0.018247963088 xtb: 6.6.1 (8d0f1dd)
C            3.23419204843949        1.14062838811806        0.08504250933395
N            2.31554763145242        0.03454048219575        0.04485587961267
C            2.63247822933007       -1.25949241016503        0.04824651281447
N            1.50374762666547       -2.00876950722386        0.02422890222639
C            0.43578637209945       -1.15886102478070        0.00492409408392
C            0.94400908099121        0.13261009712731        0.01977810084243
C            0.07420054672667        1.28433442197372        0.01208364106576
O            0.39416592236313        2.45051789921281        0.01435298746466
N           -1.27960675166544        0.87041299213406       -0.00593297470797
C           -2.24601421432648        1.98894590502083        0.05969269816182
C           -1.75610834882729       -0.36767879986805       -0.03539612522128
O           -3.53510953429554        1.51217284658362        0.00928969821227
N           -0.89578061453493       -1.40414148939767       -0.02586886251572
C           -1.41648698147255       -2.75554378690350       -0.02347569680628
H            3.74000977446778        1.17680029552034        1.05081561771086
H            3.98250871510590        1.03803001080897       -0.70035999490494
H            2.67672982847118        2.06546497371676       -0.05711943166428
H            3.62830534729686       -1.65390102752415        0.06347355669247
H           -1.99383380856393        2.67833730277768       -0.74744986716217
H           -3.99896300892154        1.85089317436273       -0.77999593674291
H           -2.06965584050997        2.49688333805935        1.01681247731124
H           -1.09224907025703       -3.28845444599432        0.87164753277150
H           -1.09054787209320       -3.29766289743818       -0.91225447824465
H           -2.50193767356800       -2.68988746117936       -0.02293536813047
H            1.47504410972654       -3.01794073553755        0.01671614569732
25
 energy: -42.163589172713 gnorm: 0.016652491289 xtb: 6.6.1 (8d0f1dd)
C            3.22702230954685        1.14359189755814        0.08724992062480
N            2.31469936263365        0.03201130521610        0.05007771885573
C            2.63245234980494       -1.26175682221866        0.05700906254591
N            1.50377538660861       -2.01122454557765        0.02962881627266
C            0.43485858834987       -1.16222797275752        0.00522151758762
C            0.94354279887815        0.12895236049936        0.01776546737641
C            0.07395119784127        1.28039540113714        0.00404206767247
O            0.39351873454704        2.44728296396760        0.00781255530642
N           -1.27815586918701        0.86697414316931       -0.01513569249717
C           -2.24324166440717        1.99100189019012        0.05359033000718
C           -1.75738004503128       -0.37014352725605       -0.04279384119792
O           -3.54139117926534        1.52504403657691        0.04701934618555
N           -0.89674868045879       -1.40706566531622       -0.03149368559869
C           -1.41421002005102       -2.75950165245023       -0.03181718495704
H            3.73454897437977        1.18500660724341        1.05198326777360
H            3.97420421809633        1.04605009732151       -0.69979248538332
H            2.66203533765693        2.06429858599622       -0.05444014411328
H            3.62861140142409       -1.65539040907201        0.07858703959015
H           -1.99952207195903        2.66584154482710       -0.78134373047452
H           -4.00294871125895        1.86094280908325       -0.74072513909673
H           -2.03046438290729        2.51779290934681        1.00423178404975
H           -1.09117008763830       -3.29186929179535        0.86402455268077
H           -1.08360062947637       -3.29975578005632       -0.92006295463310
H           -2.49989494697844       -2.69749763459811       -0.03513772510670
H            1.47593914295174       -3.02051470943523        0.02567075443056
25
 energy: -42.163712399982 gnorm: 0.014865740624 xtb: 6.6.1 (8d0f1dd)
C            3.22630132355837        1.14397003522441        0.08348786371155
N            2.31561979136121        0.03089634235986        0.04851304439727
C            2.63290476159943       -1.26296397409434        0.05454925609509
N            1.50392218049236       -2.01189722554928        0.02898305965947
C            0.43526742984309       -1.16256286428690        0.00648985866807
C            0.94437393083231        0.12842638874137        0.01894834876482
C            0.07443217098392        1.28057848018290        0.00712074408427
O            0.39612951370152        2.44689796553779        0.01092311748433
N           -1.27713174600183        0.86773317724080       -0.01266242358827
C           -2.24470841548506        1.99053944563442        0.05674719888026
C           -1.75663685076798       -0.36955301031745       -0.03726413091801
O           -3.53643087960049        1.52716719403516        0.02549513118746
N           -0.89649100826499       -1.40677529065411       -0.02764671824253
C           -1.41425373997316       -2.75896627460162       -0.02842585159003
H            3.73525883197594        1.18722830536221        1.04745871113827
H            3.97269940063352        1.04752356257228       -0.70438051536918
H            2.65891890962472        2.06330782043512       -0.05796895099873
H            3.62875812363763       -1.65730502484841        0.07502882918732
H           -1.99171270940477        2.67763530594769       -0.75805410023399
H           -3.99819769704736        1.86426405635790       -0.76235957423837
H           -2.04919919222768        2.50053106115074        1.01207075745214
H           -1.09172078566378       -3.29219908140889        0.86700446682323
H           -1.08360955810808       -3.29848157314707       -0.91704855280479
H           -2.49988054224255       -2.69653114501881       -0.03198052072100
H            1.47581827064398       -3.02122513525614        0.02614256907245
25
 energy: -42.163744314842 gnorm: 0.014129298528 xtb: 6.6.1 (8d0f1dd)
C            3.22491933064295        1.14474900263285        0.08200979000385
N            2.31589978999365        0.03021988946211        0.04832078300730
C            2.63314020472599       -1.26360998545458        0.05518747520656
N            1.50415531342492       -2.01250959266049        0.02999135353622
C            0.43542809757788       -1.16318373578330        0.00671971347374
C            0.94452416020584        0.12774997920158        0.01856569389571
C            0.07385097333437        1.28002878648130        0.00631561843081
O            0.39697670490321        2.44596287087800        0.00991037471667
N           -1.27729974207566        0.86730189032753       -0.01396855419687
C           -2.24409586270517        1.99072155501715        0.05772077835163
C           -1.75674922327390       -0.37019163416736       -0.03566151280588
O           -3.53613813156682        1.53010468127900        0.02107869913891
N           -0.89645029506182       -1.40729372181410       -0.02656265191107
C           -1.41399346860195       -2.75950899041697       -0.02839832776572
H            3.73501819247841        1.18921785632046        1.04533713368672
H            3.97066825395308        1.04964927441955       -0.70660646652400
H            2.65544281374268        2.06284206559249       -0.05898185004688
H            3.62883416075814       -1.65833224188809        0.07659517240459
H           -1.98679977780305        2.68260963398718       -0.75106892824218
H           -3.99834548621301        1.86647151619203       -0.76638914064587
H           -2.05050077072812        2.49602675404547        1.01532458841081
H           -1.09273607955071       -3.29347130871281        0.86703474620344
H           -1.08194419747800       -3.29823976443321       -0.91697500807015
H           -2.49961278658724       -2.69720221967094       -0.03345572972227
H            1.47623934000460       -3.02187401923521        0.02912786736503
25
 energy: -42.163819251906 gnorm: 0.011261041895 xtb: 6.6.1 (8d0f1dd)
C            3.22003669002037        1.14740785484968        0.07704757989542
N            2.31613115742527        0.02842669009943        0.04805278948001
C            2.63327491807071       -1.26520156523298        0.05947836638623
N            1.50443812454084       -2.01428801624383        0.03476480481229
C            0.43549725198386       -1.16508880185332        0.00704227504719
C            0.94451877204210        0.12562925804487        0.01612597911485
C            0.07181392097310        1.27804630555005        0.00253524490663
O            0.39924621851686        2.44287589255597        0.00557808898562
N           -1.27813850796606        0.86595909511066       -0.01777034867783
C           -2.24112238581701        1.99202191799053        0.06174102332501
C           -1.75753214711140       -0.37219661769195       -0.03211521217362
O           -3.53381807615233        1.53877827127825        0.01264949991062
N           -0.89673735157561       -1.40889910742112       -0.02461610573065
C           -1.41335368223269       -2.76141268211862       -0.03037959767270
H            3.73502745083260        1.19503107621285        1.03765070157722
H            3.96252042949000        1.05677329440013       -0.71516181984061
H            2.64402636091780        2.06178605121891       -0.06137668774672
H            3.62845173943559       -1.66104115046871        0.08507354109886
H           -1.97341864301244        2.69800472264997       -0.73419399907840
H           -3.99655206865695        1.87011748575870       -0.77381751814680
H           -2.04971312576465        2.48465430886031        1.02555866973242
H           -1.09718263220755       -3.29723980401146        0.86574446503185
H           -1.07536384725762       -3.29809465934059       -0.91802001902939
H           -2.49897021773781       -2.70007921794331       -0.04173732256785
H            1.47735116534330       -3.02373206065477        0.04131721926147
25
 energy: -42.163863777355 gnorm: 0.008756945294 xtb: 6.6.1 (8d0f1dd)
C            3.21807542816201        1.14851398211263        0.07448399768978
N            2.31571299220467        0.02820287327002        0.04821624671451
C            2.63295123035790       -1.26526078551186        0.06452140954387
N            1.50434630985107       -2.01477750775253        0.03932238800833
C            0.43527877003572       -1.16576959181695        0.00627647328400
C            0.94412448340992        0.12489323401541        0.01278400734064
C            0.07076156539246        1.27703139646680       -0.00225023281373
O            0.39939297010154        2.44160027306046        0.00055464655989
N           -1.27891156926068        0.86531130941016       -0.02167496351508
C           -2.23924696320940        1.99261295399912        0.06429481350680
C           -1.75817396879029       -0.37310512787576       -0.03481566530111
O           -3.53367406552643        1.54341716941521        0.01447656639271
N           -0.89708745387016       -1.40953088503566       -0.02648964520159
C           -1.41321171145382       -2.76228398165564       -0.03318737753634
H            3.73661444990889        1.19656292435783        1.03309825246879
H            3.95773059967668        1.05958215784664       -0.72061061608544
H            2.63991167930324        2.06182175287330       -0.06167275397770
H            3.62794058957743       -1.66140891194584        0.09371222427527
H           -1.96865074642130        2.70393964281693       -0.72631701956739
H           -3.99594126924439        1.86989469865235       -0.77142491406641