      -----------------------------------------------------------      
     |                   =====================                   |     
     |                           x T B                           |     
     |                   =====================                   |     
     |                         S. Grimme                         |     
     |          Mulliken Center for Theoretical Chemistry        |     
     |                    University of Bonn                     |     
      -----------------------------------------------------------      

   * xtb version 6.6.1 (8d0f1dd) compiled by 'conda@1efc2f54142f' on 2023-08-01

   xtb is free software: you can redistribute it and/or modify it under
   the terms of the GNU Lesser General Public License as published by
   the Free Software Foundation, either version 3 of the License, or
   (at your option) any later version.
   
   xtb is distributed in the hope that it will be useful,
   but WITHOUT ANY WARRANTY; without even the implied warranty of
   MERCHANTABILITY or FITNESS FOR A PARTICULAR PURPOSE.  See the
   GNU Lesser General Public License for more details.
   
   Cite this work as:
   * C. Bannwarth, E. Caldeweyher, S. Ehlert, A. Hansen, P. Pracht,
     J. Seibert, S. Spicher, S. Grimme, WIREs Comput. Mol. Sci., 2020, 11,
     e01493. DOI: 10.1002/wcms.1493
   
   for GFN2-xTB:
   * C. Bannwarth, S. Ehlert and S. Grimme., J. Chem. Theory Comput., 2019,
     15, 1652-1671. DOI: 10.1021/acs.jctc.8b01176
   for GFN1-xTB:
   * S. Grimme, C. Bannwarth, P. Shushkov, J. Chem. Theory Comput., 2017,
     13, 1989-2009. DOI: 10.1021/acs.jctc.7b00118
   for GFN0-xTB:
   * P. Pracht, E. Caldeweyher, S. Ehlert, S. Grimme, ChemRxiv, 2019, preprint.
     DOI: 10.26434/chemrxiv.8326202.v1
   for GFN-FF:
   * S. Spicher and S. Grimme, Angew. Chem. Int. Ed., 2020, 59, 15665-15673.
     DOI: 10.1002/anie.202004239
   
   for ALPB and GBSA implicit solvation:
   * S. Ehlert, M. Stahn, S. Spicher, S. Grimme, J. Chem. Theory Comput.,
     2021, 17, 4250-4261. DOI: 10.1021/acs.jctc.1c00471
   
   for DFT-D4:
   * E. Caldeweyher, C. Bannwarth and S. Grimme, J. Chem. Phys., 2017,
     147, 034112. DOI: 10.1063/1.4993215
   * E. Caldeweyher, S. Ehlert, A. Hansen, H. Neugebauer, S. Spicher,
     C. Bannwarth and S. Grimme, J. Chem. Phys., 2019, 150, 154122.
     DOI: 10.1063/1.5090222
   * E. Caldeweyher, J.-M. Mewes, S. Ehlert and S. Grimme, Phys. Chem. Chem. Phys.
     2020, 22, 8499-8512. DOI: 10.1039/D0CP00502A
   
   for sTDA-xTB:
   * S. Grimme and C. Bannwarth, J. Chem. Phys., 2016, 145, 054103.
     DOI: 10.1063/1.4959605
   
   in the mass-spec context:
   * V. Asgeirsson, C. Bauer and S. Grimme, Chem. Sci., 2017, 8, 4879.
     DOI: 10.1039/c7sc00601b
   * J. Koopman and S. Grimme, ACS Omega 2019, 4, 12, 15120-15133.
     DOI: 10.1021/acsomega.9b02011
   
   for metadynamics refer to:
   * S. Grimme, J. Chem. Theory Comput., 2019, 155, 2847-2862
     DOI: 10.1021/acs.jctc.9b00143
   
   for SPH calculations refer to:
   * S. Spicher and S. Grimme, J. Chem. Theory Comput., 2021, 17, 1701-1714
     DOI: 10.1021/acs.jctc.0c01306
   
   with help from (in alphabetical order)
   P. Atkinson, C. Bannwarth, F. Bohle, G. Brandenburg, E. Caldeweyher
   M. Checinski, S. Dohm, S. Ehlert, S. Ehrlich, I. Gerasimov, C. Hölzer
   A. Katbashev, J. Koopman, C. Lavigne, S. Lehtola, F. März, M. Müller,
   F. Musil, H. Neugebauer, J. Pisarek, C. Plett, P. Pracht, F. Pultar,
   J. Seibert, P. Shushkov, S. Spicher, M. Stahn, M. Steiner, T. Strunk,
   J. Stückrath, T. Rose, and J. Unsleber
   
 * started run on 2024/04/06 at 11:12:59.863     

           -------------------------------------------------
          |                Calculation Setup                |
           -------------------------------------------------

          program call               : xtb struc.xyz --opt loose --input .xc1 --gfn2
          hostname                   : n-62-30-23
          coordinate file            : struc.xyz
          omp threads                :                     1

   ID    Z sym.   atoms
    1    7 N      1, 17
    2    6 C      2-6, 8, 9, 11-16, 18-23, 25, 26, 28-33
    3    8 O      7, 10, 24, 27
    4    1 H      34-72
constraining bond 14 15 to    4.0000000 Å, actual value:    1.5351513 Å

           -------------------------------------------------
          |                 G F N 2 - x T B                 |
           -------------------------------------------------

        Reference                      10.1021/acs.jctc.8b01176
      * Hamiltonian:
        H0-scaling (s, p, d)           1.850000    2.230000    2.230000
        zeta-weighting                 0.500000
      * Dispersion:
        s8                             2.700000
        a1                             0.520000
        a2                             5.000000
        s9                             5.000000
      * Repulsion:
        kExp                           1.500000    1.000000
        rExp                           1.000000
      * Coulomb:
        alpha                          2.000000
        third order                    shell-resolved
        anisotropic                    true
        a3                             3.000000
        a5                             4.000000
        cn-shift                       1.200000
        cn-exp                         4.000000
        max-rad                        5.000000


          ...................................................
          :                      SETUP                      :
          :.................................................:
          :  # basis functions                 171          :
          :  # atomic orbitals                 171          :
          :  # shells                          105          :
          :  # electrons                       180          :
          :  max. iterations                   250          :
          :  Hamiltonian                  GFN2-xTB          :
          :  restarted?                      false          :
          :  GBSA solvation                  false          :
          :  PC potential                    false          :
          :  electronic temp.         5000.0000000     K    :
          :  accuracy                    1.0000000          :
          :  -> integral cutoff          0.2500000E+02      :
          :  -> integral neglect         0.1000000E-07      :
          :  -> SCF convergence          0.1000000E-05 Eh   :
          :  -> wf. convergence          0.1000000E-03 e    :
          :  Broyden damping             0.4000000          :
          ...................................................

 iter      E             dE          RMSdq      gap      omega  full diag
   1   -100.5973919 -0.100597E+03  0.374E+00    3.20       0.0  T
   2   -100.7362642 -0.138872E+00  0.221E+00    1.08       1.0  T
   3   -100.7049001  0.313641E-01  0.141E+00    3.29       1.0  T
   4   -100.7721690 -0.672689E-01  0.526E-01    1.50       1.0  T
   5   -100.7894292 -0.172602E-01  0.190E-01    1.98       1.0  T
   6   -100.7911978 -0.176856E-02  0.792E-02    1.77       1.0  T
   7   -100.7914750 -0.277198E-03  0.375E-02    1.83       1.0  T
   8   -100.7914914 -0.164582E-04  0.140E-02    1.83       1.0  T
   9   -100.7914976 -0.616739E-05  0.474E-03    1.82       2.5  T
  10   -100.7914988 -0.118227E-05  0.172E-03    1.82       6.8  T
  11   -100.7914989 -0.139928E-06  0.766E-04    1.82      15.4  T
  12   -100.7914989 -0.773143E-08  0.318E-04    1.82      37.0  T

   *** convergence criteria satisfied after 12 iterations ***

         #    Occupation            Energy/Eh            Energy/eV
      -------------------------------------------------------------
         1        2.0000           -0.8078051             -21.9815
       ...           ...                  ...                  ...
        84        1.9966           -0.5157491             -14.0342
        85        1.9959           -0.5128261             -13.9547
        86        1.9840           -0.4911498             -13.3649
        87        1.9795           -0.4872543             -13.2589
        88        1.9640           -0.4782114             -13.0128
        89        1.8920           -0.4602041             -12.5228
        90        1.8557           -0.4553147             -12.3897 (HOMO)
        91        0.3166           -0.3884132             -10.5693 (LUMO)
        92        0.0218           -0.3434697              -9.3463
        93        0.0041           -0.3169887              -8.6257
        94        0.0034           -0.3139726              -8.5436
        95        0.0029           -0.3112618              -8.4699
       ...           ...                  ...                  ...
       171                          0.5822580              15.8440
      -------------------------------------------------------------
                  HL-Gap            0.0669015 Eh            1.8205 eV
             Fermi-level           -0.4148687 Eh          -11.2892 eV

 SCC (total)                   0 d,  0 h,  0 min,  0.190 sec
 SCC setup                      ...        0 min,  0.001 sec (  0.615%)
 Dispersion                     ...        0 min,  0.002 sec (  0.903%)
 classical contributions        ...        0 min,  0.000 sec (  0.242%)
 integral evaluation            ...        0 min,  0.019 sec (  9.860%)
 iterations                     ...        0 min,  0.098 sec ( 51.544%)
 molecular gradient             ...        0 min,  0.069 sec ( 36.497%)
 printout                       ...        0 min,  0.001 sec (  0.329%)

         :::::::::::::::::::::::::::::::::::::::::::::::::::::
         ::                     SUMMARY                     ::
         :::::::::::::::::::::::::::::::::::::::::::::::::::::
         :: total energy             -98.319334625934 Eh    ::
         :: gradient norm              0.659521750488 Eh/a0 ::
         :: HOMO-LUMO gap              1.820481192090 eV    ::
         ::.................................................::
         :: SCC energy              -100.791498925389 Eh    ::
         :: -> isotropic ES            0.109302908418 Eh    ::
         :: -> anisotropic ES          0.005415138735 Eh    ::
         :: -> anisotropic XC          0.042392697176 Eh    ::
         :: -> dispersion             -0.075527661009 Eh    ::
         :: repulsion energy           1.386151658689 Eh    ::
         :: add. restraining           1.084796288260 Eh    ::
         :: total charge               1.000000000108 e     ::
         :::::::::::::::::::::::::::::::::::::::::::::::::::::

      ----------------------------------------------------------- 
     |                   =====================                   |
     |                        A N C O P T                        |
     |                   =====================                   |
     |               Approximate Normal Coordinate               |
     |                Rational Function Optimizer                |
      ----------------------------------------------------------- 

          ...................................................
          :                      SETUP                      :
          :.................................................:
          :   optimization level             loose          :
          :   max. optcycles                   200          :
          :   ANC micro-cycles                  20          :
          :   degrees of freedom               210          :
          :.................................................:
          :   RF solver                   davidson          :
          :   write xtbopt.log                true          :
          :   linear?                        false          :
          :   energy convergence         0.5000000E-04 Eh   :
          :   grad. convergence          0.4000000E-02 Eh/α :
          :   maxmium RF displ.          1.0000000          :
          :   Hlow (freq-cutoff)         0.1000000E-01      :
          :   Hmax (freq-cutoff)         5.0000000          :
          :   S6 in model hess.         20.0000000          :
          ...................................................

generating ANC from model Hessian ...
Using Lindh-Hessian (1995)
 Shifting diagonal of input Hessian by    6.0424799235121923E-002
 Lowest  eigenvalues of input Hessian
    0.010000    0.015548    0.000000    0.000000    0.000000    0.000000
    0.000000    0.000000    0.060505    0.060545    0.060642    0.060840
    0.060896    0.061101    0.061304    0.061412    0.061671    0.062227
 Highest eigenvalues
    2.086077    2.096378    2.102006    2.229860    2.234923    2.237480


........................................................................
.............................. CYCLE    1 ..............................
........................................................................

 iter      E             dE          RMSdq      gap      omega  full diag
   1   -100.7914989 -0.100791E+03  0.114E-04    1.82       0.0  T
   2   -100.7914989 -0.678995E-10  0.713E-05    1.82     165.2  T
   3   -100.7914989  0.665210E-10  0.496E-05    1.82     237.5  T
     SCC iter.                  ...        0 min,  0.026 sec
     gradient                   ...        0 min,  0.069 sec
 * total energy  :   -98.3193346 Eh     change       -0.4035485E-08 Eh
   gradient norm :     0.6595224 Eh/α   predicted     0.0000000E+00 (-100.00%)
   displ. norm   :     0.4570528 α      lambda       -0.2798804E+00
   maximum displ.:     0.2387179 α      in ANC's #193, #192, #191, ...

........................................................................
.............................. CYCLE    2 ..............................
........................................................................

 iter      E             dE          RMSdq      gap      omega  full diag
   1   -100.7639802 -0.100764E+03  0.268E-01    1.70       0.0  T
   2   -100.7642917 -0.311417E-03  0.176E-01    1.87       1.0  T
   3   -100.7640761  0.215594E-03  0.134E-01    1.68       1.0  T
   4   -100.7649018 -0.825783E-03  0.504E-02    1.84       1.0  T
   5   -100.7651073 -0.205428E-03  0.101E-02    1.78       1.2  T
   6   -100.7651142 -0.696358E-05  0.409E-03    1.79       2.9  T
   7   -100.7651144 -0.162947E-06  0.196E-03    1.79       6.0  T
   8   -100.7651146 -0.185579E-06  0.427E-04    1.79      27.6  T
   9   -100.7651146 -0.564094E-08  0.198E-04    1.79      59.5  T
     SCC iter.                  ...        0 min,  0.073 sec
     gradient                   ...        0 min,  0.072 sec
 * total energy  :   -98.5491452 Eh     change       -0.2298106E+00 Eh
   gradient norm :     0.4525912 Eh/α   predicted    -0.1691739E+00 ( -26.39%)
   displ. norm   :     0.6162888 α      lambda       -0.2681963E+00
   maximum displ.:     0.3409214 α      in ANC's #193, #192, #191, ...

........................................................................
.............................. CYCLE    3 ..............................
........................................................................

 iter      E             dE          RMSdq      gap      omega  full diag
   1   -100.7005322 -0.100701E+03  0.447E-01    1.47       0.0  T
   2   -100.6954079  0.512431E-02  0.416E-01    1.73       1.0  T
   3   -100.7053436 -0.993568E-02  0.243E-01    1.66       1.0  T
   4   -100.7051145  0.229010E-03  0.130E-01    1.45       1.0  T
   5   -100.7074286 -0.231404E-02  0.379E-02    1.68       1.0  T
   6   -100.7076023 -0.173711E-03  0.893E-03    1.63       1.3  T
   7   -100.7076040 -0.173943E-05  0.423E-03    1.63       2.8  T
   8   -100.7076045 -0.458418E-06  0.148E-03    1.63       8.0  T
   9   -100.7076046 -0.136156E-06  0.574E-04    1.63      20.5  T
  10   -100.7076046 -0.624605E-08  0.275E-04    1.63      42.8  T
     SCC iter.                  ...        0 min,  0.081 sec
     gradient                   ...        0 min,  0.069 sec
 * total energy  :   -98.7849882 Eh     change       -0.2358430E+00 Eh
   gradient norm :     0.3577705 Eh/α   predicted    -0.1850307E+00 ( -21.54%)
   displ. norm   :     0.8129273 α      lambda       -0.2850509E+00
   maximum displ.:     0.4737156 α      in ANC's #193, #192, #191, ...

........................................................................
.............................. CYCLE    4 ..............................
........................................................................

 iter      E             dE          RMSdq      gap      omega  full diag
   1   -100.6312320 -0.100631E+03  0.481E-01    1.26       0.0  T
   2   -100.5772761  0.539559E-01  0.806E-01    0.67       1.0  T
   3   -100.6375108 -0.602347E-01  0.316E-01    1.24       1.0  T
   4   -100.6370813  0.429554E-03  0.187E-01    0.96       1.0  T
   5   -100.6425811 -0.549981E-02  0.840E-02    1.09       1.0  T
   6   -100.6431840 -0.602862E-03  0.192E-02    1.06       1.0  T
   7   -100.6432182 -0.342348E-04  0.808E-03    1.07       1.5  T
   8   -100.6432197 -0.148916E-05  0.263E-03    1.07       4.5  T
   9   -100.6432202 -0.532996E-06  0.101E-03    1.07      11.7  T
  10   -100.6432203 -0.365680E-07  0.499E-04    1.07      23.6  T
  11   -100.6432203 -0.439444E-08  0.211E-04    1.07      55.8  T
     SCC iter.                  ...        0 min,  0.089 sec
     gradient                   ...        0 min,  0.069 sec
 * total energy  :   -99.0273049 Eh     change       -0.2423167E+00 Eh
   gradient norm :     0.2354348 Eh/α   predicted    -0.2367136E+00 (  -2.31%)
   displ. norm   :     0.7579929 α      lambda       -0.1720983E+00
   maximum displ.:     0.4088533 α      in ANC's #193, #192, #191, ...

........................................................................
.............................. CYCLE    5 ..............................
........................................................................

 iter      E             dE          RMSdq      gap      omega  full diag
   1   -100.5634676 -0.100563E+03  0.433E-01    1.18       0.0  T
   2   -100.5300005  0.334671E-01  0.624E-01    0.47       1.0  T
   3   -100.5672412 -0.372407E-01  0.247E-01    1.16       1.0  T
   4   -100.5644713  0.276984E-02  0.212E-01    0.84       1.0  T
   5   -100.5706438 -0.617243E-02  0.704E-02    1.01       1.0  T
   6   -100.5711411 -0.497354E-03  0.165E-02    0.99       1.0  T
   7   -100.5711668 -0.256339E-04  0.849E-03    0.99       1.4  T
   8   -100.5711688 -0.202371E-05  0.233E-03    0.99       5.1  T
   9   -100.5711691 -0.285620E-06  0.113E-03    0.99      10.5  T
  10   -100.5711691 -0.244091E-07  0.674E-04    0.99      17.5  T
  11   -100.5711691 -0.222811E-07  0.252E-04    0.99      46.7  T
     SCC iter.                  ...        0 min,  0.088 sec
     gradient                   ...        0 min,  0.069 sec
 * total energy  :   -99.1396080 Eh     change       -0.1123031E+00 Eh
   gradient norm :     0.1138405 Eh/α   predicted    -0.1354890E+00 (  20.65%)
   displ. norm   :     0.6185145 α      lambda       -0.5627983E-01
   maximum displ.:     0.2282189 α      in ANC's #61, #2, #69, ...

........................................................................
.............................. CYCLE    6 ..............................
........................................................................

 iter      E             dE          RMSdq      gap      omega  full diag
   1   -100.5910453 -0.100591E+03  0.198E-01    1.08       0.0  T
   2   -100.5895435  0.150188E-02  0.199E-01    0.88       1.0  T
   3   -100.5905778 -0.103435E-02  0.126E-01    1.13       1.0  T
   4   -100.5905053  0.725036E-04  0.119E-01    0.92       1.0  T
   5   -100.5921248 -0.161955E-02  0.260E-02    1.03       1.0  T
   6   -100.5922130 -0.881275E-04  0.117E-02    1.02       1.0  T
   7   -100.5922199 -0.693568E-05  0.465E-03    1.02       2.5  T
   8   -100.5922206 -0.732201E-06  0.232E-03    1.02       5.1  T
   9   -100.5922210 -0.341821E-06  0.841E-04    1.02      14.0  T
  10   -100.5922210 -0.502459E-07  0.239E-04    1.02      49.3  T
     SCC iter.                  ...        0 min,  0.081 sec
     gradient                   ...        0 min,  0.075 sec
 * total energy  :   -99.1838262 Eh     change       -0.4421813E-01 Eh
   gradient norm :     0.0829653 Eh/α   predicted    -0.3890516E-01 ( -12.02%)
   displ. norm   :     0.6828342 α      lambda       -0.4067167E-01
   maximum displ.:     0.1975430 α      in ANC's #27, #61, #20, ...

........................................................................
.............................. CYCLE    7 ..............................
........................................................................

 iter      E             dE          RMSdq      gap      omega  full diag
   1   -100.6245146 -0.100625E+03  0.190E-01    0.93       0.0  T
   2   -100.6214008  0.311386E-02  0.199E-01    1.17       1.0  T
   3   -100.6230265 -0.162575E-02  0.158E-01    0.86       1.0  T
   4   -100.6253598 -0.233328E-02  0.558E-02    1.03       1.0  T
   5   -100.6255604 -0.200657E-03  0.229E-02    0.99       1.0  T
   6   -100.6255938 -0.333903E-04  0.583E-03    1.00       2.0  T
   7   -100.6255937  0.177190E-06  0.406E-03    1.00       2.9  T
   8   -100.6255949 -0.128939E-05  0.101E-03    1.00      11.6  T
   9   -100.6255950 -0.936092E-07  0.430E-04    1.00      27.4  T
  10   -100.6255950 -0.615029E-08  0.193E-04    1.00      61.2  T
     SCC iter.                  ...        0 min,  0.080 sec
     gradient                   ...        0 min,  0.069 sec
 * total energy  :   -99.2165726 Eh     change       -0.3274643E-01 Eh
   gradient norm :     0.0807699 Eh/α   predicted    -0.2981772E-01 (  -8.94%)
   displ. norm   :     0.7187890 α      lambda       -0.3295257E-01
   maximum displ.:     0.2254826 α      in ANC's #27, #20, #38, ...

........................................................................
.............................. CYCLE    8 ..............................
........................................................................

 iter      E             dE          RMSdq      gap      omega  full diag
   1   -100.6437305 -0.100644E+03  0.180E-01    0.90       0.0  T
   2   -100.6397751  0.395543E-02  0.224E-01    1.16       1.0  T
   3   -100.6436459 -0.387083E-02  0.113E-01    0.89       1.0  T
   4   -100.6442523 -0.606416E-03  0.695E-02    1.01       1.0  T
   5   -100.6446251 -0.372740E-03  0.159E-02    0.96       1.0  T
   6   -100.6446462 -0.211546E-04  0.434E-03    0.97       2.7  T
   7   -100.6446468 -0.542680E-06  0.210E-03    0.97       5.6  T
   8   -100.6446471 -0.273085E-06  0.894E-04    0.97      13.2  T
   9   -100.6446471 -0.861722E-07  0.307E-04    0.97      38.4  T
     SCC iter.                  ...        0 min,  0.073 sec
     gradient                   ...        0 min,  0.069 sec
 * total energy  :   -99.2444829 Eh     change       -0.2791034E-01 Eh
   gradient norm :     0.0688403 Eh/α   predicted    -0.2498908E-01 ( -10.47%)
   displ. norm   :     0.7602721 α      lambda       -0.3084741E-01
   maximum displ.:     0.2312611 α      in ANC's #27, #20, #38, ...

........................................................................
.............................. CYCLE    9 ..............................
........................................................................

 iter      E             dE          RMSdq      gap      omega  full diag
   1   -100.6730711 -0.100673E+03  0.202E-01    0.81       0.0  T
   2   -100.6607597  0.123114E-01  0.373E-01    1.26       1.0  T
   3   -100.6746956 -0.139359E-01  0.115E-01    0.96       1.0  T
   4   -100.6746477  0.478717E-04  0.534E-02    0.94       1.0  T
   5   -100.6748219 -0.174170E-03  0.124E-02    0.92       1.0  T
   6   -100.6748372 -0.153070E-04  0.425E-03    0.93       2.8  T
   7   -100.6748380 -0.813119E-06  0.206E-03    0.93       5.7  T
   8   -100.6748381 -0.860584E-07  0.115E-03    0.93      10.3  T
   9   -100.6748382 -0.115779E-06  0.364E-04    0.93      32.4  T
  10   -100.6748382 -0.480159E-08  0.146E-04    0.93      80.9  T
     SCC iter.                  ...        0 min,  0.081 sec
     gradient                   ...        0 min,  0.069 sec
 * total energy  :   -99.2702445 Eh     change       -0.2576156E-01 Eh
   gradient norm :     0.0434717 Eh/α   predicted    -0.2433883E-01 (  -5.52%)
   displ. norm   :     0.7791379 α      lambda       -0.2409866E-01
   maximum displ.:     0.2249552 α      in ANC's #20, #27, #2, ...

........................................................................
.............................. CYCLE   10 ..............................
........................................................................

 iter      E             dE          RMSdq      gap      omega  full diag
   1   -100.6848576 -0.100685E+03  0.209E-01    0.90       0.0  T
   2   -100.6847547  0.102907E-03  0.134E-01    0.95       1.0  T
   3   -100.6808772  0.387756E-02  0.195E-01    0.75       1.0  T
   4   -100.6837469 -0.286976E-02  0.108E-01    1.01       1.0  T
   5   -100.6850479 -0.130096E-02  0.813E-03    0.91       1.4  T
   6   -100.6850517 -0.380009E-05  0.432E-03    0.92       2.7  T
   7   -100.6850522 -0.520445E-06  0.191E-03    0.92       6.2  T
   8   -100.6850523 -0.107670E-06  0.777E-04    0.92      15.2  T
   9   -100.6850523 -0.300031E-07  0.248E-04    0.92      47.6  T
     SCC iter.                  ...        0 min,  0.073 sec
     gradient                   ...        0 min,  0.069 sec
 * total energy  :   -99.2888741 Eh     change       -0.1862967E-01 Eh
   gradient norm :     0.0341454 Eh/α   predicted    -0.1936396E-01 (   3.94%)
   displ. norm   :     0.7173106 α      lambda       -0.1524387E-01
   maximum displ.:     0.2089257 α      in ANC's #20, #27, #61, ...

........................................................................
.............................. CYCLE   11 ..............................
........................................................................

 iter      E             dE          RMSdq      gap      omega  full diag
   1   -100.6978930 -0.100698E+03  0.165E-01    0.86       0.0  T
   2   -100.6956446  0.224839E-02  0.190E-01    1.03       1.0  T
   3   -100.6970004 -0.135573E-02  0.119E-01    0.81       1.0  T
   4   -100.6978034 -0.803071E-03  0.733E-02    0.95       1.0  T
   5   -100.6982871 -0.483702E-03  0.660E-03    0.90       1.8  T
   6   -100.6982891 -0.193353E-05  0.251E-03    0.90       4.7  T
   7   -100.6982891 -0.664195E-07  0.138E-03    0.90       8.5  T
   8   -100.6982892 -0.115800E-06  0.537E-04    0.90      22.0  T
   9   -100.6982893 -0.253721E-07  0.196E-04    0.90      60.1  T
     SCC iter.                  ...        0 min,  0.073 sec
     gradient                   ...        0 min,  0.069 sec
 * total energy  :   -99.3003318 Eh     change       -0.1145768E-01 Eh
   gradient norm :     0.0426256 Eh/α   predicted    -0.1154370E-01 (   0.75%)
   displ. norm   :     0.6327435 α      lambda       -0.1009842E-01
   maximum displ.:     0.1851664 α      in ANC's #20, #27, #2, ...

........................................................................
.............................. CYCLE   12 ..............................
........................................................................

 iter      E             dE          RMSdq      gap      omega  full diag
   1   -100.7029400 -0.100703E+03  0.143E-01    0.87       0.0  T
   2   -100.7021012  0.838877E-03  0.126E-01    0.97       1.0  T
   3   -100.7003886  0.171253E-02  0.161E-01    0.76       1.0  T
   4   -100.7028669 -0.247825E-02  0.442E-02    0.92       1.0  T
   5   -100.7030775 -0.210581E-03  0.372E-03    0.89       3.2  T
   6   -100.7030780 -0.557655E-06  0.206E-03    0.89       5.7  T
   7   -100.7030781 -0.109325E-06  0.988E-04    0.89      11.9  T
   8   -100.7030782 -0.601087E-07  0.288E-04    0.89      40.9  T
     SCC iter.                  ...        0 min,  0.065 sec
     gradient                   ...        0 min,  0.068 sec
 * total energy  :   -99.3081043 Eh     change       -0.7772472E-02 Eh
   gradient norm :     0.0320506 Eh/α   predicted    -0.7070787E-02 (  -9.03%)
   displ. norm   :     0.5841023 α      lambda       -0.7517555E-02
   maximum displ.:     0.1661950 α      in ANC's #20, #2, #12, ...

........................................................................
.............................. CYCLE   13 ..............................
........................................................................

 iter      E             dE          RMSdq      gap      omega  full diag
   1   -100.7154139 -0.100715E+03  0.127E-01    0.85       0.0  T
   2   -100.7138210  0.159284E-02  0.147E-01    1.00       1.0  T
   3   -100.7146047 -0.783630E-03  0.110E-01    0.80       1.0  T
   4   -100.7155046 -0.899963E-03  0.346E-02    0.90       1.0  T
   5   -100.7156545 -0.149858E-03  0.599E-03    0.88       2.0  T
   6   -100.7156583 -0.382790E-05  0.196E-03    0.89       6.0  T
   7   -100.7156584 -0.345422E-07  0.131E-03    0.88       9.0  T
   8   -100.7156585 -0.939313E-07  0.331E-04    0.89      35.6  T
   9   -100.7156585 -0.624971E-08  0.166E-04    0.89      70.8  T
     SCC iter.                  ...        0 min,  0.073 sec
     gradient                   ...        0 min,  0.068 sec
 * total energy  :   -99.3137490 Eh     change       -0.5644741E-02 Eh
   gradient norm :     0.0321885 Eh/α   predicted    -0.5041187E-02 ( -10.69%)
   displ. norm   :     0.5312892 α      lambda       -0.5255759E-02
   maximum displ.:     0.1893248 α      in ANC's #12, #20, #19, ...

........................................................................
.............................. CYCLE   14 ..............................
........................................................................

 iter      E             dE          RMSdq      gap      omega  full diag
   1   -100.7237607 -0.100724E+03  0.122E-01    0.81       0.0  T
   2   -100.7198254  0.393536E-02  0.211E-01    1.05       1.0  T
   3   -100.7240182 -0.419282E-02  0.667E-02    0.84       1.0  T
   4   -100.7240818 -0.635758E-04  0.349E-02    0.88       1.0  T
   5   -100.7242199 -0.138081E-03  0.398E-03    0.87       3.0  T
   6   -100.7242210 -0.118311E-05  0.188E-03    0.87       6.3  T
   7   -100.7242212 -0.143025E-06  0.738E-04    0.87      16.0  T
   8   -100.7242212 -0.232361E-07  0.295E-04    0.87      39.9  T
     SCC iter.                  ...        0 min,  0.065 sec
     gradient                   ...        0 min,  0.068 sec
 * total energy  :   -99.3174254 Eh     change       -0.3676332E-02 Eh
   gradient norm :     0.0219831 Eh/α   predicted    -0.3369652E-02 (  -8.34%)
   displ. norm   :     0.5125744 α      lambda       -0.3698334E-02
   maximum displ.:     0.2000733 α      in ANC's #2, #12, #10, ...

........................................................................
.............................. CYCLE   15 ..............................
........................................................................

 iter      E             dE          RMSdq      gap      omega  full diag
   1   -100.7240571 -0.100724E+03  0.125E-01    0.83       0.0  T
   2   -100.7230388  0.101829E-02  0.128E-01    0.95       1.0  T
   3   -100.7228360  0.202795E-03  0.121E-01    0.77       1.0  T
   4   -100.7240245 -0.118851E-02  0.399E-02    0.88       1.0  T
   5   -100.7242030 -0.178497E-03  0.413E-03    0.86       2.9  T
   6   -100.7242036 -0.575314E-06  0.230E-03    0.86       5.1  T
   7   -100.7242038 -0.238571E-06  0.808E-04    0.86      14.6  T
   8   -100.7242038 -0.389398E-07  0.249E-04    0.86      47.4  T
     SCC iter.                  ...        0 min,  0.065 sec
     gradient                   ...        0 min,  0.068 sec
 * total energy  :   -99.3199644 Eh     change       -0.2539061E-02 Eh
   gradient norm :     0.0176588 Eh/α   predicted    -0.2335004E-02 (  -8.04%)
   displ. norm   :     0.4029173 α      lambda       -0.2341352E-02
   maximum displ.:     0.1879199 α      in ANC's #12, #10, #61, ...

........................................................................
.............................. CYCLE   16 ..............................
........................................................................

 iter      E             dE          RMSdq      gap      omega  full diag
   1   -100.7268941 -0.100727E+03  0.102E-01    0.80       0.0  T
   2   -100.7237240  0.317009E-02  0.189E-01    1.01       1.0  T
   3   -100.7271295 -0.340552E-02  0.539E-02    0.82       1.0  T
   4   -100.7271652 -0.357294E-04  0.259E-02    0.85       1.0  T
   5   -100.7272461 -0.808245E-04  0.330E-03    0.85       3.6  T
   6   -100.7272467 -0.613348E-06  0.203E-03    0.85       5.8  T
   7   -100.7272469 -0.255855E-06  0.660E-04    0.85      17.8  T
   8   -100.7272470 -0.156875E-07  0.247E-04    0.85      47.7  T
     SCC iter.                  ...        0 min,  0.065 sec
     gradient                   ...        0 min,  0.068 sec
 * total energy  :   -99.3216526 Eh     change       -0.1688197E-02 Eh
   gradient norm :     0.0129705 Eh/α   predicted    -0.1360731E-02 ( -19.40%)
   displ. norm   :     0.3602963 α      lambda       -0.1725294E-02
   maximum displ.:     0.1793730 α      in ANC's #12, #38, #10, ...

........................................................................
.............................. CYCLE   17 ..............................
........................................................................

 iter      E             dE          RMSdq      gap      omega  full diag
   1   -100.7282004 -0.100728E+03  0.822E-02    0.84       0.0  T
   2   -100.7281464  0.539785E-04  0.567E-02    0.87       1.0  T
   3   -100.7272700  0.876469E-03  0.980E-02    0.77       1.0  T
   4   -100.7280905 -0.820554E-03  0.365E-02    0.87       1.0  T
   5   -100.7282286 -0.138068E-03  0.221E-03    0.85       5.3  T
   6   -100.7282288 -0.184686E-06  0.990E-04    0.85      11.9  T
   7   -100.7282288 -0.183622E-07  0.586E-04    0.85      20.1  T
     SCC iter.                  ...        0 min,  0.057 sec
     gradient                   ...        0 min,  0.069 sec
 * total energy  :   -99.3228653 Eh     change       -0.1212641E-02 Eh
   gradient norm :     0.0135870 Eh/α   predicted    -0.9746331E-03 ( -19.63%)
   displ. norm   :     0.3181426 α      lambda       -0.1150848E-02
   maximum displ.:     0.1537185 α      in ANC's #12, #1, #38, ...

........................................................................
.............................. CYCLE   18 ..............................
........................................................................

 iter      E             dE          RMSdq      gap      omega  full diag
   1   -100.7253475 -0.100725E+03  0.683E-02    0.82       0.0  T
   2   -100.7250495  0.298040E-03  0.690E-02    0.89       1.0  T
   3   -100.7249325  0.116927E-03  0.702E-02    0.79       1.0  T
   4   -100.7253704 -0.437901E-03  0.942E-03    0.84       1.3  T
   5   -100.7253818 -0.113370E-04  0.158E-03    0.84       7.5  T
   6   -100.7253819 -0.113998E-06  0.990E-04    0.84      11.9  T
   7   -100.7253819 -0.552179E-07  0.358E-04    0.84      32.9  T
     SCC iter.                  ...        0 min,  0.057 sec
     gradient                   ...        0 min,  0.068 sec
 * total energy  :   -99.3236208 Eh     change       -0.7554998E-03 Eh
   gradient norm :     0.0108956 Eh/α   predicted    -0.6336678E-03 ( -16.13%)
   displ. norm   :     0.2013325 α      lambda       -0.6767975E-03
   maximum displ.:     0.1054551 α      in ANC's #12, #36, #38, ...

........................................................................
.............................. CYCLE   19 ..............................
........................................................................

 iter      E             dE          RMSdq      gap      omega  full diag
   1   -100.7263924 -0.100726E+03  0.518E-02    0.86       0.0  T
   2   -100.7260759  0.316467E-03  0.620E-02    0.80       1.0  T
   3   -100.7262176 -0.141684E-03  0.507E-02    0.88       1.0  T
   4   -100.7264211 -0.203576E-03  0.679E-03    0.85       1.7  T
   5   -100.7264257 -0.459327E-05  0.139E-03    0.84       8.5  T
   6   -100.7264258 -0.346155E-07  0.982E-04    0.84      12.0  T
   7   -100.7264259 -0.739391E-07  0.329E-04    0.84      35.8  T
     SCC iter.                  ...        0 min,  0.057 sec
     gradient                   ...        0 min,  0.068 sec
 * total energy  :   -99.3240388 Eh     change       -0.4180026E-03 Eh
   gradient norm :     0.0102852 Eh/α   predicted    -0.3521191E-03 ( -15.76%)
   displ. norm   :     0.2227952 α      lambda       -0.5717191E-03
   maximum displ.:     0.1421574 α      in ANC's #1, #12, #36, ...

........................................................................
.............................. CYCLE   20 ..............................
........................................................................

 iter      E             dE          RMSdq      gap      omega  full diag
   1   -100.7247236 -0.100725E+03  0.500E-02    0.86       0.0  T
   2   -100.7246253  0.982304E-04  0.421E-02    0.82       1.0  T
   3   -100.7243634  0.261926E-03  0.635E-02    0.90       1.0  T
   4   -100.7247255 -0.362052E-03  0.113E-02    0.84       1.0  T
   5   -100.7247411 -0.155868E-04  0.168E-03    0.85       7.0  T
   6   -100.7247413 -0.261712E-06  0.806E-04    0.85      14.6  T
   7   -100.7247413 -0.298190E-07  0.278E-04    0.85      42.4  T
     SCC iter.                  ...        0 min,  0.057 sec
     gradient                   ...        0 min,  0.068 sec
 * total energy  :   -99.3244219 Eh     change       -0.3831139E-03 Eh
   gradient norm :     0.0084924 Eh/α   predicted    -0.3000524E-03 ( -21.68%)
   displ. norm   :     0.2236336 α      lambda       -0.6353146E-03
   maximum displ.:     0.1171184 α      in ANC's #12, #1, #36, ...
 * RMSD in coord.:     0.9231566 α      energy gain  -0.1005087E+01 Eh

generating ANC from model Hessian ...
Using Lindh-Hessian (1995)
 Shifting diagonal of input Hessian by    1.0013718708759754E-002
 Lowest  eigenvalues of input Hessian
    0.010000    0.000000    0.000000    0.000000    0.000000    0.000000
    0.000000    0.010017    0.010059    0.010104    0.010172    0.010379
    0.010430    0.010470    0.010574    0.010787    0.010928    0.011703
 Highest eigenvalues
    2.040601    2.047791    2.084379    2.106616    2.181919    2.182624


........................................................................
.............................. CYCLE   21 ..............................
........................................................................

 iter      E             dE          RMSdq      gap      omega  full diag
   1   -100.7239225 -0.100724E+03  0.554E-02    0.86       0.0  T
   2   -100.7238356  0.868808E-04  0.425E-02    0.83       1.0  T
   3   -100.7234143  0.421240E-03  0.744E-02    0.91       1.0  T
   4   -100.7239187 -0.504332E-03  0.144E-02    0.85       1.0  T
   5   -100.7239374 -0.187011E-04  0.136E-03    0.85       8.7  T
   6   -100.7239374 -0.606787E-07  0.782E-04    0.85      15.1  T
   7   -100.7239375 -0.247354E-07  0.374E-04    0.85      31.5  T
     SCC iter.                  ...        0 min,  0.057 sec
     gradient                   ...        0 min,  0.068 sec
 * total energy  :   -99.3248981 Eh     change       -0.4762434E-03 Eh
   gradient norm :     0.0101701 Eh/α   predicted     0.0000000E+00 (-100.00%)
   displ. norm   :     0.1908536 α      lambda       -0.9041756E-03
   maximum displ.:     0.0789687 α      in ANC's #12, #34, #45, ...

........................................................................
.............................. CYCLE   22 ..............................
........................................................................

 iter      E             dE          RMSdq      gap      omega  full diag
   1   -100.7271014 -0.100727E+03  0.648E-02    0.85       0.0  T
   2   -100.7271008  0.616381E-06  0.391E-02    0.86       1.0  T
   3   -100.7268590  0.241736E-03  0.482E-02    0.81       1.0  T
   4   -100.7270773 -0.218311E-03  0.169E-02    0.86       1.0  T
   5   -100.7271062 -0.288232E-04  0.130E-03    0.85       9.1  T
   6   -100.7271063 -0.982520E-07  0.577E-04    0.85      20.4  T
   7   -100.7271063 -0.870287E-09  0.315E-04    0.85      37.4  T
     SCC iter.                  ...        0 min,  0.057 sec
     gradient                   ...        0 min,  0.068 sec
 * total energy  :   -99.3256006 Eh     change       -0.7024942E-03 Eh
   gradient norm :     0.0043757 Eh/α   predicted    -0.4685568E-03 ( -33.30%)
   displ. norm   :     0.3712376 α      lambda       -0.9719914E-03
   maximum displ.:     0.1804927 α      in ANC's #12, #34, #13, ...

........................................................................
.............................. CYCLE   23 ..............................
........................................................................

 iter      E             dE          RMSdq      gap      omega  full diag
   1   -100.7292647 -0.100729E+03  0.111E-01    0.85       0.0  T
   2   -100.7292733 -0.861721E-05  0.666E-02    0.86       1.0  T
   3   -100.7291114  0.161903E-03  0.414E-02    0.82       1.0  T
   4   -100.7291148 -0.338205E-05  0.402E-02    0.88       1.0  T
   5   -100.7292839 -0.169104E-03  0.244E-03    0.85       4.8  T
   6   -100.7292843 -0.403312E-06  0.979E-04    0.85      12.0  T
   7   -100.7292843 -0.111619E-07  0.498E-04    0.85      23.6  T
     SCC iter.                  ...        0 min,  0.057 sec
     gradient                   ...        0 min,  0.068 sec
 * total energy  :   -99.3262971 Eh     change       -0.6964540E-03 Eh
   gradient norm :     0.0049989 Eh/α   predicted    -0.5530044E-03 ( -20.60%)
   displ. norm   :     0.4033029 α      lambda       -0.6471344E-03
   maximum displ.:     0.2073414 α      in ANC's #12, #13, #34, ...

........................................................................
.............................. CYCLE   24 ..............................
........................................................................

 iter      E             dE          RMSdq      gap      omega  full diag
   1   -100.7290326 -0.100729E+03  0.109E-01    0.85       0.0  T
   2   -100.7290417 -0.914070E-05  0.651E-02    0.85       1.0  T
   3   -100.7289778  0.639512E-04  0.282E-02    0.84       1.0  T
   4   -100.7290175 -0.396798E-04  0.180E-02    0.86       1.0  T
   5   -100.7290499 -0.324455E-04  0.326E-03    0.85       3.6  T
   6   -100.7290508 -0.948712E-06  0.103E-03    0.85      11.4  T
   7   -100.7290509 -0.305331E-07  0.437E-04    0.85      27.0  T
   8   -100.7290509 -0.127705E-07  0.113E-04    0.85     104.4  T
     SCC iter.                  ...        0 min,  0.065 sec
     gradient                   ...        0 min,  0.069 sec
 * total energy  :   -99.3268023 Eh     change       -0.5052496E-03 Eh
   gradient norm :     0.0073119 Eh/α   predicted    -0.3761968E-03 ( -25.54%)
   displ. norm   :     0.4749594 α      lambda       -0.6838718E-03
   maximum displ.:     0.2380441 α      in ANC's #12, #13, #34, ...

........................................................................
.............................. CYCLE   25 ..............................
........................................................................

 iter      E             dE          RMSdq      gap      omega  full diag
   1   -100.7281517 -0.100728E+03  0.122E-01    0.84       0.0  T
   2   -100.7281600 -0.829955E-05  0.721E-02    0.85       1.0  T
   3   -100.7281016  0.583861E-04  0.257E-02    0.83       1.0  T
   4   -100.7281516 -0.499410E-04  0.129E-02    0.86       1.0  T
   5   -100.7281671 -0.155251E-04  0.321E-03    0.84       3.7  T
   6   -100.7281680 -0.879788E-06  0.121E-03    0.85       9.8  T
   7   -100.7281680 -0.623938E-07  0.429E-04    0.85      27.5  T
   8   -100.7281681 -0.134541E-07  0.137E-04    0.85      86.1  T
     SCC iter.                  ...        0 min,  0.065 sec
     gradient                   ...        0 min,  0.068 sec
 * total energy  :   -99.3273357 Eh     change       -0.5334141E-03 Eh
   gradient norm :     0.0075729 Eh/α   predicted    -0.4190735E-03 ( -21.44%)
   displ. norm   :     0.4716082 α      lambda       -0.6563746E-03
   maximum displ.:     0.2277557 α      in ANC's #12, #13, #8, ...

........................................................................
.............................. CYCLE   26 ..............................
........................................................................

 iter      E             dE          RMSdq      gap      omega  full diag
   1   -100.7287484 -0.100729E+03  0.115E-01    0.84       0.0  T
   2   -100.7287528 -0.447958E-05  0.673E-02    0.84       1.0  T
   3   -100.7286718  0.810042E-04  0.295E-02    0.86       1.0  T
   4   -100.7286958 -0.239933E-04  0.239E-02    0.82       1.0  T
   5   -100.7287573 -0.614239E-04  0.226E-03    0.85       5.2  T
   6   -100.7287575 -0.251061E-06  0.103E-03    0.84      11.4  T
   7   -100.7287575 -0.352403E-07  0.391E-04    0.84      30.2  T
   8   -100.7287576 -0.112043E-07  0.150E-04    0.84      78.5  T
     SCC iter.                  ...        0 min,  0.065 sec
     gradient                   ...        0 min,  0.068 sec
 * total energy  :   -99.3278161 Eh     change       -0.4803392E-03 Eh
   gradient norm :     0.0057732 Eh/α   predicted    -0.4011826E-03 ( -16.48%)
   displ. norm   :     0.4106018 α      lambda       -0.3851330E-03
   maximum displ.:     0.1888540 α      in ANC's #13, #12, #8, ...

........................................................................
.............................. CYCLE   27 ..............................
........................................................................

 iter      E             dE          RMSdq      gap      omega  full diag
   1   -100.7290578 -0.100729E+03  0.933E-02    0.84       0.0  T
   2   -100.7290604 -0.254265E-05  0.547E-02    0.84       1.0  T
   3   -100.7290072  0.532357E-04  0.230E-02    0.86       1.0  T
   4   -100.7290291 -0.219903E-04  0.179E-02    0.83       1.0  T
   5   -100.7290628 -0.336277E-04  0.149E-03    0.84       7.9  T
   6   -100.7290629 -0.100656E-06  0.739E-04    0.84      16.0  T
   7   -100.7290629 -0.698570E-08  0.393E-04    0.84      30.0  T
     SCC iter.                  ...        0 min,  0.057 sec
     gradient                   ...        0 min,  0.068 sec
 * total energy  :   -99.3281030 Eh     change       -0.2868800E-03 Eh
   gradient norm :     0.0050514 Eh/α   predicted    -0.2250328E-03 ( -21.56%)
   displ. norm   :     0.3770619 α      lambda       -0.2719768E-03
   maximum displ.:     0.1582192 α      in ANC's #13, #12, #5, ...

........................................................................
.............................. CYCLE   28 ..............................
........................................................................

 iter      E             dE          RMSdq      gap      omega  full diag
   1   -100.7299379 -0.100730E+03  0.859E-02    0.84       0.0  T
   2   -100.7299383 -0.443886E-06  0.503E-02    0.84       1.0  T
   3   -100.7297575  0.180841E-03  0.418E-02    0.87       1.0  T
   4   -100.7299264 -0.168935E-03  0.124E-02    0.83       1.0  T
   5   -100.7299420 -0.155949E-04  0.132E-03    0.84       8.9  T
   6   -100.7299421 -0.940546E-07  0.680E-04    0.84      17.3  T
   7   -100.7299421 -0.578632E-08  0.402E-04    0.84      29.3  T
     SCC iter.                  ...        0 min,  0.057 sec
     gradient                   ...        0 min,  0.068 sec
 * total energy  :   -99.3283114 Eh     change       -0.2084518E-03 Eh
   gradient norm :     0.0044557 Eh/α   predicted    -0.1553596E-03 ( -25.47%)
   displ. norm   :     0.4094779 α      lambda       -0.2406229E-03
   maximum displ.:     0.1738697 α      in ANC's #5, #8, #13, ...

........................................................................
.............................. CYCLE   29 ..............................
........................................................................

 iter      E             dE          RMSdq      gap      omega  full diag
   1   -100.7299216 -0.100730E+03  0.976E-02    0.84       0.0  T
   2   -100.7299200  0.157617E-05  0.572E-02    0.84       1.0  T
   3   -100.7294979  0.422122E-03  0.647E-02    0.89       1.0  T
   4   -100.7299049 -0.407049E-03  0.151E-02    0.83       1.0  T
   5   -100.7299283 -0.234144E-04  0.151E-03    0.84       7.8  T
   6   -100.7299284 -0.120809E-06  0.828E-04    0.84      14.2  T
   7   -100.7299285 -0.282569E-07  0.437E-04    0.84      27.0  T
     SCC iter.                  ...        0 min,  0.057 sec
     gradient                   ...        0 min,  0.068 sec
 * total energy  :   -99.3285014 Eh     change       -0.1899479E-03 Eh
   gradient norm :     0.0047982 Eh/α   predicted    -0.1404893E-03 ( -26.04%)
   displ. norm   :     0.4257537 α      lambda       -0.3007185E-03
   maximum displ.:     0.2073697 α      in ANC's #5, #8, #9, ...

........................................................................
.............................. CYCLE   30 ..............................
........................................................................

 iter      E             dE          RMSdq      gap      omega  full diag
   1   -100.7348531 -0.100735E+03  0.932E-02    0.84       0.0  T
   2   -100.7348537 -0.608173E-06  0.547E-02    0.84       1.0  T
   3   -100.7345983  0.255413E-03  0.498E-02    0.88       1.0  T
   4   -100.7348358 -0.237569E-03  0.154E-02    0.83       1.0  T
   5   -100.7348589 -0.230358E-04  0.160E-03    0.84       7.4  T
   6   -100.7348590 -0.156887E-06  0.791E-04    0.84      14.9  T
   7   -100.7348590  0.190764E-08  0.562E-04    0.84      21.0  T
     SCC iter.                  ...        0 min,  0.057 sec
     gradient                   ...        0 min,  0.069 sec
 * total energy  :   -99.3286988 Eh     change       -0.1974363E-03 Eh
   gradient norm :     0.0062541 Eh/α   predicted    -0.1776146E-03 ( -10.04%)
   displ. norm   :     0.5883417 α      lambda       -0.3496490E-03
   maximum displ.:     0.2780232 α      in ANC's #5, #8, #9, ...

........................................................................
.............................. CYCLE   31 ..............................
........................................................................

 iter      E             dE          RMSdq      gap      omega  full diag
   1   -100.7293247 -0.100729E+03  0.149E-01    0.84       0.0  T
   2   -100.7292574  0.672984E-04  0.895E-02    0.82       1.0  T
   3   -100.7258226  0.343475E-02  0.190E-01    0.99       1.0  T
   4   -100.7293164 -0.349377E-02  0.173E-02    0.83       1.0  T
   5   -100.7293501 -0.337078E-04  0.396E-03    0.84       3.0  T
   6   -100.7293506 -0.504454E-06  0.263E-03    0.84       4.5  T
   7   -100.7293511 -0.499509E-06  0.910E-04    0.84      13.0  T
   8   -100.7293511 -0.392161E-07  0.265E-04    0.84      44.5  T
     SCC iter.                  ...        0 min,  0.065 sec
     gradient                   ...        0 min,  0.068 sec
 * total energy  :   -99.3288919 Eh     change       -0.1931308E-03 Eh
   gradient norm :     0.0091481 Eh/α   predicted    -0.2353440E-03 (  21.86%)
   displ. norm   :     0.2560025 α      lambda       -0.3122443E-03
   maximum displ.:     0.1365648 α      in ANC's #5, #10, #9, ...

........................................................................
.............................. CYCLE   32 ..............................
........................................................................

 iter      E             dE          RMSdq      gap      omega  full diag
   1   -100.7313068 -0.100731E+03  0.463E-02    0.83       0.0  T
   2   -100.7312588  0.480639E-04  0.334E-02    0.86       1.0  T
   3   -100.7308643  0.394485E-03  0.705E-02    0.78       1.0  T
   4   -100.7313106 -0.446275E-03  0.666E-03    0.83       1.8  T
   5   -100.7313147 -0.413916E-05  0.241E-03    0.84       4.9  T
   6   -100.7313151 -0.355679E-06  0.122E-03    0.84       9.7  T
   7   -100.7313151 -0.476803E-07  0.652E-04    0.84      18.1  T
   8   -100.7313152 -0.370889E-07  0.120E-04    0.84      98.1  T
     SCC iter.                  ...        0 min,  0.065 sec
     gradient                   ...        0 min,  0.074 sec
 * total energy  :   -99.3290727 Eh     change       -0.1807490E-03 Eh
   gradient norm :     0.0062659 Eh/α   predicted    -0.1663574E-03 (  -7.96%)
   displ. norm   :     0.4046679 α      lambda       -0.3786996E-03
   maximum displ.:     0.2099492 α      in ANC's #5, #9, #10, ...

........................................................................
.............................. CYCLE   33 ..............................
........................................................................

 iter      E             dE          RMSdq      gap      omega  full diag
   1   -100.7343592 -0.100734E+03  0.821E-02    0.84       0.0  T
   2   -100.7343479  0.112759E-04  0.493E-02    0.83       1.0  T
   3   -100.7335063  0.841642E-03  0.932E-02    0.91       1.0  T
   4   -100.7343590 -0.852699E-03  0.666E-03    0.83       1.8  T
   5   -100.7343638 -0.477400E-05  0.205E-03    0.84       5.7  T
   6   -100.7343641 -0.354795E-06  0.725E-04    0.84      16.2  T
   7   -100.7343641  0.308908E-08  0.441E-04    0.84      26.7  T
     SCC iter.                  ...        0 min,  0.057 sec
     gradient                   ...        0 min,  0.070 sec
 * total energy  :   -99.3293384 Eh     change       -0.2656918E-03 Eh
   gradient norm :     0.0068429 Eh/α   predicted    -0.2203611E-03 ( -17.06%)
   displ. norm   :     0.5779581 α      lambda       -0.3605577E-03
   maximum displ.:     0.3118228 α      in ANC's #5, #9, #10, ...

........................................................................
.............................. CYCLE   34 ..............................
........................................................................

 iter      E             dE          RMSdq      gap      omega  full diag
   1   -100.7320447 -0.100732E+03  0.123E-01    0.84       0.0  T
   2   -100.7319699  0.748439E-04  0.777E-02    0.81       1.0  T
   3   -100.7288797  0.309013E-02  0.178E-01    0.98       1.0  T
   4   -100.7320552 -0.317549E-02  0.665E-03    0.83       1.8  T
   5   -100.7320581 -0.288132E-05  0.384E-03    0.84       3.1  T
   6   -100.7320591 -0.105250E-05  0.152E-03    0.84       7.7  T
   7   -100.7320592 -0.822908E-07  0.546E-04    0.84      21.6  T
   8   -100.7320592 -0.247856E-07  0.167E-04    0.84      70.4  T
     SCC iter.                  ...        0 min,  0.065 sec
     gradient                   ...        0 min,  0.068 sec
 * total energy  :   -99.3295140 Eh     change       -0.1755802E-03 Eh
   gradient norm :     0.0107125 Eh/α   predicted    -0.2404987E-03 (  36.97%)
   displ. norm   :     0.3383262 α      lambda       -0.3931458E-03
   maximum displ.:     0.1798476 α      in ANC's #5, #10, #9, ...

........................................................................
.............................. CYCLE   35 ..............................
........................................................................

 iter      E             dE          RMSdq      gap      omega  full diag
   1   -100.7315519 -0.100732E+03  0.617E-02    0.83       0.0  T
   2   -100.7315535 -0.154221E-05  0.363E-02    0.83       1.0  T
   3   -100.7315457  0.780353E-05  0.865E-03    0.83       1.4  T
   4   -100.7315515 -0.586814E-05  0.508E-03    0.84       2.3  T
   5   -100.7315535 -0.195419E-05  0.355E-03    0.83       3.3  T
   6   -100.7315544 -0.921011E-06  0.110E-03    0.83      10.7  T
   7   -100.7315545 -0.103536E-06  0.344E-04    0.83      34.2  T
   8   -100.7315545 -0.571858E-08  0.117E-04    0.83     100.7  T
     SCC iter.                  ...        0 min,  0.065 sec
     gradient                   ...        0 min,  0.068 sec
 * total energy  :   -99.3297459 Eh     change       -0.2319715E-03 Eh
   gradient norm :     0.0085725 Eh/α   predicted    -0.2190742E-03 (  -5.56%)
   displ. norm   :     0.3200537 α      lambda       -0.3026399E-03
   maximum displ.:     0.1610004 α      in ANC's #5, #10, #3, ...

........................................................................
.............................. CYCLE   36 ..............................
........................................................................

 iter      E             dE          RMSdq      gap      omega  full diag
   1   -100.7357135 -0.100736E+03  0.547E-02    0.84       0.0  T
   2   -100.7357122  0.123512E-05  0.337E-02    0.83       1.0  T
   3   -100.7354721  0.240180E-03  0.486E-02    0.87       1.0  T
   4   -100.7356828 -0.210752E-03  0.188E-02    0.82       1.0  T
   5   -100.7357200 -0.371640E-04  0.171E-03    0.83       6.9  T
   6   -100.7357201 -0.161808E-06  0.130E-03    0.83       9.1  T
   7   -100.7357203 -0.130970E-06  0.426E-04    0.83      27.7  T
   8   -100.7357203 -0.555792E-08  0.121E-04    0.83      97.5  T
     SCC iter.                  ...        0 min,  0.065 sec
     gradient                   ...        0 min,  0.068 sec
 * total energy  :   -99.3299239 Eh     change       -0.1779601E-03 Eh
   gradient norm :     0.0064169 Eh/α   predicted    -0.1668258E-03 (  -6.26%)
   displ. norm   :     0.5853367 α      lambda       -0.3218217E-03
   maximum displ.:     0.3400721 α      in ANC's #5, #9, #10, ...

........................................................................
.............................. CYCLE   37 ..............................
........................................................................

 iter      E             dE          RMSdq      gap      omega  full diag
   1   -100.7295799 -0.100730E+03  0.123E-01    0.84       0.0  T
   2   -100.7294109  0.168974E-03  0.838E-02    0.80       1.0  T
   3   -100.7260364  0.337455E-02  0.187E-01    0.99       1.0  T
   4   -100.7295976 -0.356126E-02  0.663E-03    0.83       1.8  T
   5   -100.7296000 -0.231899E-05  0.414E-03    0.84       2.8  T
   6   -100.7296012 -0.121080E-05  0.193E-03    0.84       6.1  T
   7   -100.7296013 -0.162676E-06  0.771E-04    0.83      15.3  T
   8   -100.7296014 -0.469299E-07  0.155E-04    0.83      76.0  T
     SCC iter.                  ...        0 min,  0.065 sec
     gradient                   ...        0 min,  0.069 sec
 * total energy  :   -99.3300731 Eh     change       -0.1492040E-03 Eh
   gradient norm :     0.0089697 Eh/α   predicted    -0.2160446E-03 (  44.80%)
   displ. norm   :     0.1709581 α      lambda       -0.2764213E-03
   maximum displ.:     0.0882238 α      in ANC's #5, #34, #3, ...

........................................................................
.............................. CYCLE   38 ..............................
........................................................................

 iter      E             dE          RMSdq      gap      omega  full diag
   1   -100.7318823 -0.100732E+03  0.382E-02    0.83       0.0  T
   2   -100.7318713  0.110104E-04  0.236E-02    0.84       1.0  T
   3   -100.7315417  0.329575E-03  0.588E-02    0.79       1.0  T
   4   -100.7318833 -0.341604E-03  0.477E-03    0.83       2.5  T
   5   -100.7318852 -0.184636E-05  0.186E-03    0.83       6.4  T
   6   -100.7318853 -0.956644E-07  0.120E-03    0.83       9.8  T
   7   -100.7318854 -0.105918E-06  0.315E-04    0.83      37.5  T
   8   -100.7318854 -0.428651E-08  0.133E-04    0.83      88.7  T
     SCC iter.                  ...        0 min,  0.065 sec
     gradient                   ...        0 min,  0.069 sec
 * total energy  :   -99.3301908 Eh     change       -0.1177503E-03 Eh
   gradient norm :     0.0084181 Eh/α   predicted    -0.1422510E-03 (  20.81%)
   displ. norm   :     0.2122012 α      lambda       -0.1818364E-03
   maximum displ.:     0.1298581 α      in ANC's #5, #3, #1, ...

........................................................................
.............................. CYCLE   39 ..............................
........................................................................

 iter      E             dE          RMSdq      gap      omega  full diag
   1   -100.7332530 -0.100733E+03  0.416E-02    0.84       0.0  T
   2   -100.7332442  0.878595E-05  0.269E-02    0.82       1.0  T
   3   -100.7328928  0.351330E-03  0.591E-02    0.88       1.0  T
   4   -100.7332513 -0.358507E-03  0.592E-03    0.83       2.0  T
   5   -100.7332557 -0.434395E-05  0.143E-03    0.83       8.3  T
   6   -100.7332558 -0.153565E-06  0.664E-04    0.83      17.7  T
   7   -100.7332559 -0.216040E-07  0.215E-04    0.83      54.8  T
     SCC iter.                  ...        0 min,  0.057 sec
     gradient                   ...        0 min,  0.069 sec
 * total energy  :   -99.3303128 Eh     change       -0.1219606E-03 Eh
   gradient norm :     0.0043689 Eh/α   predicted    -0.9501656E-04 ( -22.09%)
   displ. norm   :     0.3311658 α      lambda       -0.1961101E-03
   maximum displ.:     0.2074914 α      in ANC's #5, #3, #1, ...

........................................................................
.............................. CYCLE   40 ..............................
........................................................................

 iter      E             dE          RMSdq      gap      omega  full diag
   1   -100.7338508 -0.100734E+03  0.620E-02    0.84       0.0  T
   2   -100.7338342  0.165261E-04  0.395E-02    0.82       1.0  T
   3   -100.7330462  0.788011E-03  0.876E-02    0.91       1.0  T
   4   -100.7338513 -0.805078E-03  0.471E-03    0.83       2.5  T
   5   -100.7338536 -0.229633E-05  0.153E-03    0.83       7.7  T
   6   -100.7338538 -0.194937E-06  0.585E-04    0.83      20.2  T
   7   -100.7338538 -0.513742E-08  0.296E-04    0.83      39.9  T
     SCC iter.                  ...        0 min,  0.057 sec
     gradient                   ...        0 min,  0.068 sec
 * total energy  :   -99.3304531 Eh     change       -0.1403039E-03 Eh
   gradient norm :     0.0054436 Eh/α   predicted    -0.1088114E-03 ( -22.45%)
   displ. norm   :     0.4030388 α      lambda       -0.1873317E-03
   maximum displ.:     0.2534069 α      in ANC's #5, #3, #1, ...

........................................................................
.............................. CYCLE   41 ..............................
........................................................................

 iter      E             dE          RMSdq      gap      omega  full diag
   1   -100.7332962 -0.100733E+03  0.730E-02    0.84       0.0  T
   2   -100.7332755  0.206802E-04  0.465E-02    0.82       1.0  T
   3   -100.7322156  0.105990E-02  0.101E-01    0.92       1.0  T
   4   -100.7332965 -0.108090E-02  0.623E-03    0.83       1.9  T
   5   -100.7332999 -0.332449E-05  0.140E-03    0.83       8.4  T
   6   -100.7333000 -0.132552E-06  0.607E-04    0.83      19.4  T
   7   -100.7333000 -0.641451E-08  0.292E-04    0.83      40.4  T
     SCC iter.                  ...        0 min,  0.057 sec
     gradient                   ...        0 min,  0.068 sec
 * total energy  :   -99.3305894 Eh     change       -0.1363058E-03 Eh
   gradient norm :     0.0054687 Eh/α   predicted    -0.1088849E-03 ( -20.12%)
   displ. norm   :     0.3785076 α      lambda       -0.1832757E-03
   maximum displ.:     0.2213157 α      in ANC's #5, #3, #1, ...

........................................................................
.............................. CYCLE   42 ..............................
........................................................................

 iter      E             dE          RMSdq      gap      omega  full diag
   1   -100.7340521 -0.100734E+03  0.679E-02    0.83       0.0  T
   2   -100.7340477  0.436334E-05  0.415E-02    0.83       1.0  T
   3   -100.7336099  0.437815E-03  0.637E-02    0.89       1.0  T
   4   -100.7340507 -0.440810E-03  0.623E-03    0.83       1.9  T
   5   -100.7340543 -0.357566E-05  0.104E-03    0.83      11.4  T
   6   -100.7340543 -0.125441E-07  0.570E-04    0.83      20.7  T
   7   -100.7340543 -0.118738E-07  0.205E-04    0.83      57.5  T
     SCC iter.                  ...        0 min,  0.058 sec
     gradient                   ...        0 min,  0.068 sec
 * total energy  :   -99.3307071 Eh     change       -0.1176936E-03 Eh
   gradient norm :     0.0047923 Eh/α   predicted    -0.1047715E-03 ( -10.98%)
   displ. norm   :     0.3685292 α      lambda       -0.1350845E-03
   maximum displ.:     0.2314547 α      in ANC's #5, #3, #1, ...
 * RMSD in coord.:     0.7983544 α      energy gain  -0.6285212E-02 Eh

generating ANC from model Hessian ...
Using Lindh-Hessian (1995)
 Shifting diagonal of input Hessian by    1.0020470682212760E-002
 Lowest  eigenvalues of input Hessian
    0.010000    0.000000    0.000000    0.000000    0.000000    0.000000
    0.000000    0.010023    0.010082    0.010126    0.010254    0.010381
    0.010449    0.010517    0.010596    0.010781    0.010999    0.011840
 Highest eigenvalues
    2.043630    2.046047    2.106745    2.110060    2.179316    2.184336


........................................................................
.............................. CYCLE   43 ..............................
........................................................................

 iter      E             dE          RMSdq      gap      omega  full diag
   1   -100.7327915 -0.100733E+03  0.681E-02    0.84       0.0  T
   2   -100.7327576  0.339311E-04  0.454E-02    0.82       1.0  T
   3   -100.7316465  0.111106E-02  0.103E-01    0.92       1.0  T
   4   -100.7327947 -0.114816E-02  0.456E-03    0.83       2.6  T
   5   -100.7327961 -0.145972E-05  0.136E-03    0.83       8.7  T
   6   -100.7327963 -0.130165E-06  0.640E-04    0.83      18.4  T
   7   -100.7327963 -0.886240E-08  0.291E-04    0.83      40.5  T
     SCC iter.                  ...        0 min,  0.057 sec
     gradient                   ...        0 min,  0.069 sec
 * total energy  :   -99.3307985 Eh     change       -0.9137921E-04 Eh
   gradient norm :     0.0044700 Eh/α   predicted     0.0000000E+00 (-100.00%)
   displ. norm   :     0.0610275 α      lambda       -0.9641694E-04
   maximum displ.:     0.0279333 α      in ANC's #36, #10, #26, ...

........................................................................
.............................. CYCLE   44 ..............................
........................................................................

 iter      E             dE          RMSdq      gap      omega  full diag
   1   -100.7346494 -0.100735E+03  0.254E-02    0.83       0.0  T
   2   -100.7346441  0.531444E-05  0.155E-02    0.84       1.0  T
   3   -100.7344862  0.157930E-03  0.400E-02    0.80       1.0  T
   4   -100.7346501 -0.163876E-03  0.127E-03    0.83       9.3  T
   5   -100.7346502 -0.111344E-06  0.466E-04    0.83      25.3  T
   6   -100.7346502  0.170743E-09  0.333E-04    0.83      35.4  T
     SCC iter.                  ...        0 min,  0.049 sec
     gradient                   ...        0 min,  0.074 sec
 * total energy  :   -99.3308744 Eh     change       -0.7591031E-04 Eh
   gradient norm :     0.0018047 Eh/α   predicted    -0.4839590E-04 ( -36.25%)
   displ. norm   :     0.2399098 α      lambda       -0.1482044E-03
   maximum displ.:     0.1197932 α      in ANC's #10, #36, #26, ...

........................................................................
.............................. CYCLE   45 ..............................
........................................................................

 iter      E             dE          RMSdq      gap      omega  full diag
   1   -100.7371892 -0.100737E+03  0.989E-02    0.83       0.0  T
   2   -100.7371823  0.699248E-05  0.578E-02    0.84       1.0  T
   3   -100.7364529  0.729385E-03  0.817E-02    0.76       1.0  T
   4   -100.7371911 -0.738225E-03  0.474E-03    0.83       2.5  T
   5   -100.7371929 -0.177334E-05  0.120E-03    0.83       9.8  T
   6   -100.7371929 -0.155698E-07  0.650E-04    0.83      18.1  T
   7   -100.7371929 -0.203784E-07  0.223E-04    0.83      52.9  T
     SCC iter.                  ...        0 min,  0.057 sec
     gradient                   ...        0 min,  0.069 sec
 * total energy  :   -99.3309973 Eh     change       -0.1229503E-03 Eh
   gradient norm :     0.0045310 Eh/α   predicted    -0.7600620E-04 ( -38.18%)
   displ. norm   :     0.1102931 α      lambda       -0.7085978E-04
   maximum displ.:     0.0570214 α      in ANC's #10, #36, #26, ...

........................................................................
.............................. CYCLE   46 ..............................
........................................................................

 iter      E             dE          RMSdq      gap      omega  full diag
   1   -100.7362030 -0.100736E+03  0.491E-02    0.83       0.0  T
   2   -100.7362033 -0.288509E-06  0.288E-02    0.83       1.0  T
   3   -100.7361879  0.154129E-04  0.115E-02    0.82       1.0  T
   4   -100.7361994 -0.114772E-04  0.655E-03    0.83       1.8  T
   5   -100.7362037 -0.434086E-05  0.671E-04    0.83      17.6  T
   6   -100.7362037 -0.189912E-07  0.263E-04    0.83      44.9  T
   7   -100.7362037 -0.107582E-08  0.902E-05    0.83     130.7  T
     SCC iter.                  ...        0 min,  0.057 sec
     gradient                   ...        0 min,  0.074 sec
 * total energy  :   -99.3310596 Eh     change       -0.6227082E-04 Eh
   gradient norm :     0.0035222 Eh/α   predicted    -0.3586400E-04 ( -42.41%)
   displ. norm   :     0.3592649 α      lambda       -0.2098172E-03
   maximum displ.:     0.1821219 α      in ANC's #10, #36, #5, ...

........................................................................
.............................. CYCLE   47 ..............................
........................................................................

 iter      E             dE          RMSdq      gap      omega  full diag
   1   -100.7322327 -0.100732E+03  0.163E-01    0.83       0.0  T
   2   -100.7322189  0.137545E-04  0.972E-02    0.82       1.0  T
   3   -100.7306308  0.158819E-02  0.121E-01    0.93       1.0  T
   4   -100.7322260 -0.159528E-02  0.117E-02    0.82       1.0  T
   5   -100.7322419 -0.158340E-04  0.347E-03    0.83       3.4  T
   6   -100.7322428 -0.881431E-06  0.101E-03    0.83      11.7  T
   7   -100.7322428 -0.116495E-07  0.451E-04    0.83      26.1  T
   8   -100.7322428 -0.178935E-07  0.179E-04    0.83      66.0  T
     SCC iter.                  ...        0 min,  0.065 sec
     gradient                   ...        0 min,  0.069 sec
 * total energy  :   -99.3311704 Eh     change       -0.1108108E-03 Eh
   gradient norm :     0.0061486 Eh/α   predicted    -0.1184503E-03 (   6.89%)
   displ. norm   :     0.0594607 α      lambda       -0.7769121E-04
   maximum displ.:     0.0272429 α      in ANC's #10, #5, #7, ...

........................................................................
.............................. CYCLE   48 ..............................
........................................................................

 iter      E             dE          RMSdq      gap      omega  full diag
   1   -100.7330789 -0.100733E+03  0.145E-02    0.83       0.0  T
   2   -100.7330774  0.154448E-05  0.875E-03    0.83       1.3  T
   3   -100.7330292  0.481237E-04  0.218E-02    0.81       1.0  T
   4   -100.7330791 -0.499154E-04  0.150E-03    0.83       7.8  T
   5   -100.7330792 -0.101498E-06  0.907E-04    0.83      13.0  T
   6   -100.7330793 -0.359894E-07  0.512E-04    0.83      23.0  T
     SCC iter.                  ...        0 min,  0.050 sec
     gradient                   ...        0 min,  0.069 sec
 * total energy  :   -99.3312305 Eh     change       -0.6009014E-04 Eh
   gradient norm :     0.0035402 Eh/α   predicted    -0.3899624E-04 ( -35.10%)
   displ. norm   :     0.2657171 α      lambda       -0.1348756E-03
   maximum displ.:     0.1392003 α      in ANC's #10, #5, #36, ...

........................................................................
.............................. CYCLE   49 ..............................
........................................................................

 iter      E             dE          RMSdq      gap      omega  full diag
   1   -100.7335267 -0.100734E+03  0.927E-02    0.83       0.0  T
   2   -100.7335259  0.805505E-06  0.548E-02    0.82       1.0  T
   3   -100.7332795  0.246360E-03  0.480E-02    0.86       1.0  T
   4   -100.7335192 -0.239694E-03  0.965E-03    0.82       1.2  T
   5   -100.7335299 -0.106977E-04  0.158E-03    0.83       7.5  T
   6   -100.7335299 -0.229512E-07  0.957E-04    0.83      12.3  T
   7   -100.7335300 -0.627482E-07  0.281E-04    0.83      41.9  T
     SCC iter.                  ...        0 min,  0.057 sec
     gradient                   ...        0 min,  0.069 sec
 * total energy  :   -99.3313311 Eh     change       -0.1005524E-03 Eh
   gradient norm :     0.0034720 Eh/α   predicted    -0.7219996E-04 ( -28.20%)
   displ. norm   :     0.3310095 α      lambda       -0.1170803E-03
   maximum displ.:     0.1735785 α      in ANC's #10, #5, #36, ...

........................................................................
.............................. CYCLE   50 ..............................
........................................................................

 iter      E             dE          RMSdq      gap      omega  full diag
   1   -100.7336045 -0.100734E+03  0.120E-01    0.83       0.0  T
   2   -100.7335785  0.260230E-04  0.722E-02    0.81       1.0  T
   3   -100.7317244  0.185410E-02  0.130E-01    0.93       1.0  T
   4   -100.7336059 -0.188149E-02  0.666E-03    0.82       1.8  T
   5   -100.7336110 -0.508295E-05  0.243E-03    0.83       4.9  T
   6   -100.7336113 -0.323155E-06  0.118E-03    0.83      10.0  T
   7   -100.7336114 -0.118352E-06  0.262E-04    0.83      44.9  T
   8   -100.7336114 -0.448864E-08  0.124E-04    0.83      94.9  T
     SCC iter.                  ...        0 min,  0.064 sec
     gradient                   ...        0 min,  0.069 sec
 * total energy  :   -99.3314191 Eh     change       -0.8799485E-04 Eh
   gradient norm :     0.0038539 Eh/α   predicted    -0.6496076E-04 ( -26.18%)
   displ. norm   :     0.3233547 α      lambda       -0.1171791E-03
   maximum displ.:     0.1652987 α      in ANC's #10, #5, #7, ...

........................................................................
.............................. CYCLE   51 ..............................
........................................................................

 iter      E             dE          RMSdq      gap      omega  full diag
   1   -100.7354559 -0.100735E+03  0.105E-01    0.83       0.0  T
   2   -100.7354344  0.214135E-04  0.633E-02    0.81       1.0  T
   3   -100.7339647  0.146971E-02  0.116E-01    0.92       1.0  T
   4   -100.7354554 -0.149069E-02  0.706E-03    0.82       1.7  T
   5   -100.7354619 -0.652735E-05  0.219E-03    0.82       5.4  T
   6   -100.7354622 -0.244139E-06  0.131E-03    0.82       9.0  T
   7   -100.7354623 -0.140213E-06  0.305E-04    0.82      38.6  T
   8   -100.7354623 -0.615439E-08  0.109E-04    0.82     108.4  T
     SCC iter.                  ...        0 min,  0.065 sec
     gradient                   ...        0 min,  0.068 sec
 * total energy  :   -99.3315001 Eh     change       -0.8106266E-04 Eh
   gradient norm :     0.0034727 Eh/α   predicted    -0.6471669E-04 ( -20.16%)
   displ. norm   :     0.3952702 α      lambda       -0.1065452E-03
   maximum displ.:     0.2023704 α      in ANC's #10, #5, #36, ...

........................................................................
.............................. CYCLE   52 ..............................
........................................................................

 iter      E             dE          RMSdq      gap      omega  full diag
   1   -100.7335776 -0.100734E+03  0.144E-01    0.83       0.0  T
   2   -100.7334867  0.908953E-04  0.879E-02    0.80       1.0  T
   3   -100.7296358  0.385094E-02  0.190E-01    0.98       1.0  T
   4   -100.7335838 -0.394807E-02  0.880E-03    0.82       1.3  T
   5   -100.7335938 -0.993487E-05  0.403E-03    0.82       2.9  T
   6   -100.7335951 -0.135111E-05  0.157E-03    0.82       7.5  T
   7   -100.7335953 -0.210509E-06  0.443E-04    0.82      26.6  T
   8   -100.7335953 -0.107080E-07  0.168E-04    0.82      70.0  T
     SCC iter.                  ...        0 min,  0.065 sec
     gradient                   ...        0 min,  0.069 sec
 * total energy  :   -99.3315614 Eh     change       -0.6127708E-04 Eh
   gradient norm :     0.0060708 Eh/α   predicted    -0.6159730E-04 (   0.52%)
   displ. norm   :     0.2994534 α      lambda       -0.1859032E-03
   maximum displ.:     0.1467809 α      in ANC's #5, #10, #7, ...

........................................................................
.............................. CYCLE   53 ..............................
........................................................................

 iter      E             dE          RMSdq      gap      omega  full diag
   1   -100.7361936 -0.100736E+03  0.860E-02    0.82       0.0  T
   2   -100.7361871  0.652291E-05  0.511E-02    0.81       1.0  T
   3   -100.7355458  0.641279E-03  0.771E-02    0.88       1.0  T
   4   -100.7361768 -0.630960E-03  0.141E-02    0.81       1.0  T
   5   -100.7362012 -0.244894E-04  0.221E-03    0.82       5.3  T
   6   -100.7362013 -0.325247E-07  0.173E-03    0.82       6.8  T
   7   -100.7362016 -0.280089E-06  0.498E-04    0.82      23.6  T
   8   -100.7362016 -0.124078E-07  0.167E-04    0.82      70.5  T
     SCC iter.                  ...        0 min,  0.065 sec
     gradient                   ...        0 min,  0.069 sec
 * total energy  :   -99.3316834 Eh     change       -0.1219969E-03 Eh
   gradient norm :     0.0045728 Eh/α   predicted    -0.1012866E-03 ( -16.98%)
   displ. norm   :     0.5021392 α      lambda       -0.2141214E-03
   maximum displ.:     0.2364009 α      in ANC's #5, #10, #7, ...

........................................................................
.............................. CYCLE   54 ..............................
........................................................................

 iter      E             dE          RMSdq      gap      omega  full diag
   1   -100.7335575 -0.100734E+03  0.168E-01    0.82       0.0  T
   2   -100.7333921  0.165371E-03  0.104E-01    0.78       1.0  T
   3   -100.7281554  0.523672E-02  0.226E-01    1.00       1.0  T
   4   -100.7335651 -0.540970E-02  0.141E-02    0.80       1.0  T
   5   -100.7335910 -0.259364E-04  0.508E-03    0.82       2.3  T
   6   -100.7335930 -0.199215E-05  0.196E-03    0.81       6.0  T
   7   -100.7335933 -0.323092E-06  0.741E-04    0.82      15.9  T
   8   -100.7335934 -0.435224E-07  0.202E-04    0.82      58.4  T
     SCC iter.                  ...        0 min,  0.065 sec
     gradient                   ...        0 min,  0.069 sec
 * total energy  :   -99.3317759 Eh     change       -0.9248710E-04 Eh
   gradient norm :     0.0124974 Eh/α   predicted    -0.1340570E-03 (  44.95%)
   displ. norm   :     0.2411725 α      lambda       -0.2193117E-03
   maximum displ.:     0.1243716 α      in ANC's #5, #10, #7, ...

........................................................................
.............................. CYCLE   55 ..............................
........................................................................

 iter      E             dE          RMSdq      gap      omega  full diag
   1   -100.7329892 -0.100733E+03  0.699E-02    0.82       0.0  T
   2   -100.7329595  0.296680E-04  0.443E-02    0.80       1.0  T
[...]
         :: SCC energy              -100.750105771603 Eh    ::
         :: -> isotropic ES            0.104688787176 Eh    ::
         :: -> anisotropic ES          0.004884230075 Eh    ::
         :: -> anisotropic XC          0.044097961484 Eh    ::
         :: -> dispersion             -0.071900567000 Eh    ::
         :: repulsion energy           1.392448908151 Eh    ::
         :: add. restraining           0.000002621684 Eh    ::
         :: total charge               1.000000000002 e     ::
         :::::::::::::::::::::::::::::::::::::::::::::::::::::

           -------------------------------------------------
          |                Property Printout                |
           -------------------------------------------------

    * Orbital Energies and Occupations

         #    Occupation            Energy/Eh            Energy/eV
      -------------------------------------------------------------
         1        2.0000           -0.8175937             -22.2479
       ...           ...                  ...                  ...
        78        1.9976           -0.5357854             -14.5795
        79        1.9970           -0.5320952             -14.4790
        80        1.9958           -0.5271008             -14.3431
        81        1.9948           -0.5235738             -14.2472
        82        1.9939           -0.5210187             -14.1776
        83        1.9925           -0.5177170             -14.0878
        84        1.9907           -0.5144402             -13.9986
        85        1.9728           -0.4972357             -13.5305
        86        1.9656           -0.4934711             -13.4280
        87        1.8679           -0.4713606             -12.8264
        88        1.8163           -0.4656875             -12.6720
        89        1.8011           -0.4643012             -12.6343
        90        1.6869           -0.4560748             -12.4104 (HOMO)
        91        0.9375           -0.4274276             -11.6309 (LUMO)
        92        0.0024           -0.3231287              -8.7928
        93        0.0020           -0.3201075              -8.7106
        94        0.0017           -0.3171961              -8.6313
        95        0.0015           -0.3153047              -8.5799
        96        0.0003           -0.2915919              -7.9346
        97        0.0000           -0.1978322              -5.3833
        98        0.0000           -0.1920007              -5.2246
        99        0.0000           -0.1734576              -4.7200
       100                         -0.0993653              -2.7039
       101                         -0.0707444              -1.9251
       ...                                ...                  ...
       171                          0.5691455              15.4872
      -------------------------------------------------------------
                  HL-Gap            0.0286472 Eh            0.7795 eV
             Fermi-level           -0.4294104 Eh          -11.6849 eV

     #   Z          covCN         q      C6AA      α(0)
     1   7 N        1.773    -0.312    28.905     7.961
     2   6 C        3.773     0.100    18.971     6.206
     3   6 C        3.907     0.028    20.045     6.364
     4   6 C        2.970     0.002    27.982     8.677
     5   6 C        2.920    -0.073    29.830     8.956
     6   6 C        2.862     0.136    25.037     8.202
     7   8 O        1.706    -0.221    17.668     5.675
     8   6 C        3.645     0.025    20.499     6.507
     9   6 C        2.864     0.131    25.123     8.216
    10   8 O        1.706    -0.224    17.714     5.682
    11   6 C        3.645     0.025    20.482     6.505
    12   6 C        2.913    -0.072    29.790     8.950
    13   6 C        2.920    -0.045    29.119     8.849
    14   6 C        3.809    -0.068    21.787     6.644
    15   6 C        2.838    -0.120    31.051     9.132
    16   6 C        2.841     0.020    27.549     8.602
    17   7 N        2.732    -0.047    22.141     6.989
    18   6 C        3.752    -0.007    20.753     6.496
    19   6 C        3.807    -0.071    21.849     6.654
    20   6 C        2.967     0.009    27.825     8.652
    21   6 C        2.922    -0.044    29.086     8.844
    22   6 C        2.913    -0.065    29.612     8.923
    23   6 C        2.864     0.136    25.024     8.200
    24   8 O        1.706    -0.213    17.540     5.655
    25   6 C        3.645     0.023    20.529     6.512
    26   6 C        2.862     0.136    25.024     8.200
    27   8 O        1.706    -0.216    17.593     5.663
    28   6 C        3.645     0.025    20.497     6.507
    29   6 C        2.919    -0.076    29.902     8.967
    30   6 C        3.700    -0.057    21.768     6.672
    31   6 C        3.852    -0.003    20.606     6.456
    32   6 C        3.756    -0.113    22.715     6.795
    33   6 C        3.755    -0.124    22.938     6.829
    34   1 H        0.926     0.058     2.221     2.330
    35   1 H        0.924     0.057     2.236     2.338
    36   1 H        0.925     0.084     1.935     2.175
    37   1 H        0.924     0.054     2.268     2.355
    38   1 H        0.924     0.057     2.229     2.335
    39   1 H        0.925     0.084     1.938     2.177
    40   1 H        0.924     0.049     2.334     2.389
    41   1 H        0.926     0.054     2.268     2.355
    42   1 H        0.926     0.052     2.292     2.368
    43   1 H        0.926     0.088     1.902     2.157
    44   1 H        0.926     0.057     2.235     2.338
    45   1 H        0.926     0.046     2.374     2.409
    46   1 H        0.926     0.046     2.373     2.409
    47   1 H        0.924     0.014     2.824     2.628
    48   1 H        0.925     0.049     2.328     2.386
    49   1 H        0.924     0.055     2.254     2.348
    50   1 H        0.924     0.059     2.216     2.328
    51   1 H        0.924     0.057     2.237     2.339
    52   1 H        0.924     0.054     2.266     2.354
    53   1 H        0.926     0.053     2.287     2.365
    54   1 H        0.926     0.062     2.174     2.305
    55   1 H        0.924     0.059     2.214     2.327
    56   1 H        0.924     0.060     2.200     2.320
    57   1 H        0.925     0.086     1.922     2.168
    58   1 H        0.925     0.085     1.930     2.172
    59   1 H        0.924     0.054     2.272     2.357
    60   1 H        0.924     0.057     2.235     2.338
    61   1 H        0.926     0.054     2.276     2.359
    62   1 H        0.924     0.061     2.192     2.315
    63   1 H        0.924     0.065     2.136     2.286
    64   1 H        0.925     0.062     2.176     2.307
    65   1 H        0.923     0.055     2.256     2.349
    66   1 H        0.925     0.055     2.257     2.349
    67   1 H        0.925     0.041     2.436     2.441
    68   1 H        0.925     0.056     2.246     2.344
    69   1 H        0.925     0.085     1.930     2.173
    70   1 H        0.925     0.046     2.368     2.407
    71   1 H        0.925     0.057     2.230     2.335
    72   1 H        0.860     0.150     1.404     1.856

 Mol. C6AA /au·bohr⁶  :      47465.649002
 Mol. C8AA /au·bohr⁸  :    1082400.688685
 Mol. α(0) /au        :        334.536383


Wiberg/Mayer (AO) data.
largest (>0.10) Wiberg bond orders for each atom

 ---------------------------------------------------------------------------
     #   Z sym  total        # sym  WBO       # sym  WBO       # sym  WBO
 ---------------------------------------------------------------------------
     1   7 N    2.405 --     2 C    1.363    72 H    0.948
     2   6 C    3.854 --     1 N    1.363    47 H    0.940    14 C    0.841
                             3 C    0.681
     3   6 C    3.748 --     4 C    1.004    14 C    1.003    31 C    0.978
                             2 C    0.681
     4   6 C    3.936 --    13 C    1.395     5 C    1.369     3 C    1.004
     5   6 C    3.945 --     6 C    1.391     4 C    1.369    34 H    0.962
     6   6 C    3.894 --     5 C    1.391     9 C    1.215     7 O    1.110
     7   8 O    2.254 --     6 C    1.110     8 C    0.975
     8   6 C    3.927 --    36 H    0.976     7 O    0.975    35 H    0.972
                            37 H    0.972
     9   6 C    3.885 --    12 C    1.382     6 C    1.215    10 O    1.107
    10   8 O    2.248 --     9 C    1.107    11 C    0.977
    11   6 C    3.929 --    10 O    0.977    39 H    0.976    38 H    0.973
                            40 H    0.972
    12   6 C    3.958 --    13 C    1.413     9 C    1.382    41 H    0.962
    13   6 C    3.935 --    12 C    1.413     4 C    1.395    42 H    0.966
    14   6 C    3.855 --     3 C    1.003    44 H    0.968    43 H    0.965
                             2 C    0.841
    15   6 C    3.801 --    16 C    1.731    46 H    0.977    45 H    0.973
    16   6 C    3.943 --    15 C    1.731    17 N    1.203    48 H    0.957
    17   7 N    3.352 --    16 C    1.203    30 C    1.007    18 C    1.006
    18   6 C    3.961 --    17 N    1.006    49 H    0.968    50 H    0.968
                            19 C    0.959
    19   6 C    3.970 --    20 C    1.016    52 H    0.972    51 H    0.969
                            18 C    0.959
    20   6 C    3.924 --    21 C    1.387    29 C    1.385    19 C    1.016
    21   6 C    3.926 --    22 C    1.428    20 C    1.387    53 H    0.967
    22   6 C    3.948 --    21 C    1.428    23 C    1.371    54 H    0.962
    23   6 C    3.871 --    22 C    1.371    26 C    1.207    24 O    1.120
    24   8 O    2.249 --    23 C    1.120    25 C    0.974
    25   6 C    3.923 --    57 H    0.976    24 O    0.974    56 H    0.971
                            55 H    0.971
    26   6 C    3.878 --    29 C    1.386    23 C    1.207    27 O    1.114
    27   8 O    2.250 --    26 C    1.114    28 C    0.976
    28   6 C    3.927 --    58 H    0.976    27 O    0.976    59 H    0.972
                            60 H    0.972
    29   6 C    3.948 --    26 C    1.386    20 C    1.385    61 H    0.961
    30   6 C    3.965 --    17 N    1.007    64 H    0.980    63 H    0.966
                            62 H    0.966
    31   6 C    3.968 --    33 C    1.008    32 C    0.996     3 C    0.978
                            65 H    0.937
    32   6 C    3.973 --    31 C    0.996    68 H    0.982    67 H    0.980
                            66 H    0.978
    33   6 C    3.964 --    31 C    1.008    70 H    0.979    71 H    0.978
                            69 H    0.959
    34   1 H    0.995 --     5 C    0.962
    35   1 H    0.991 --     8 C    0.972
    36   1 H    0.992 --     8 C    0.976
    37   1 H    0.991 --     8 C    0.972
    38   1 H    0.991 --    11 C    0.973
    39   1 H    0.992 --    11 C    0.976
    40   1 H    0.992 --    11 C    0.972
    41   1 H    0.995 --    12 C    0.962
    42   1 H    0.996 --    13 C    0.966
    43   1 H    0.988 --    14 C    0.965
    44   1 H    0.989 --    14 C    0.968
    45   1 H    0.997 --    15 C    0.973
    46   1 H    0.997 --    15 C    0.977
    47   1 H    0.974 --     2 C    0.940
    48   1 H    0.997 --    16 C    0.957
    49   1 H    0.993 --    18 C    0.968
    50   1 H    0.994 --    18 C    0.968
    51   1 H    0.994 --    19 C    0.969
    52   1 H    0.995 --    19 C    0.972
    53   1 H    0.996 --    21 C    0.967
    54   1 H    0.994 --    22 C    0.962
    55   1 H    0.989 --    25 C    0.971
    56   1 H    0.989 --    25 C    0.971
    57   1 H    0.992 --    25 C    0.976
    58   1 H    0.992 --    28 C    0.976
    59   1 H    0.990 --    28 C    0.972
    60   1 H    0.990 --    28 C    0.972
    61   1 H    0.995 --    29 C    0.961
    62   1 H    0.982 --    30 C    0.966
    63   1 H    0.989 --    30 C    0.966
    64   1 H    0.995 --    30 C    0.980
    65   1 H    0.973 --    31 C    0.937
    66   1 H    0.993 --    32 C    0.978
    67   1 H    0.996 --    32 C    0.980
    68   1 H    0.994 --    32 C    0.982
    69   1 H    0.985 --    33 C    0.959
    70   1 H    0.994 --    33 C    0.979
    71   1 H    0.992 --    33 C    0.978
    72   1 H    0.968 --     1 N    0.948
 ---------------------------------------------------------------------------

Topologies differ in total number of bonds
Writing topology from bond orders to xtbtopo.mol

molecular dipole:
                 x           y           z       tot (Debye)
 q only:        0.468      -0.236      -0.182
   full:        0.662      -0.515      -0.236       2.214
molecular quadrupole (traceless):
                xx          xy          yy          xz          yz          zz
 q only:       70.662      -6.559     -23.120       4.591      -9.857     -47.541
  q+dip:       67.834      -2.921     -24.920       4.564     -12.893     -42.914
   full:       68.032      -3.211     -26.153       2.105     -12.583     -41.880

           -------------------------------------------------
          |                Geometry Summary                 |
           -------------------------------------------------

      molecular mass/u    :      455.6105846
   center of mass at/Å    :        0.0155774       0.0435589      -0.0685425
  moments of inertia/u·Å² :        0.2684021E+04   0.1103887E+05   0.1242856E+05
rotational constants/cm⁻¹ :        0.6280738E-02   0.1527116E-02   0.1356362E-02

 * 68 selected distances

     #   Z          #   Z                                           value/Å
     1   7 N        2   6 C                                       1.3309304
     4   6 C        5   6 C                                       1.3949104
     5   6 C        6   6 C                                       1.3863273
     6   6 C        7   8 O                                       1.3456012
     7   8 O        8   6 C                                       1.4090442
     6   6 C        9   6 C                                       1.4234092
     9   6 C       10   8 O                                       1.3472943
    10   8 O       11   6 C                                       1.4088523
     9   6 C       12   6 C                                       1.3878437
     4   6 C       13   6 C                                       1.3880135
    12   6 C       13   6 C                                       1.3867831
     2   6 C       14   6 C                                       1.5303021 (max)
     3   6 C       14   6 C                                       1.4766266
    15   6 C       16   6 C                                       1.3390500
    16   6 C       17   7 N                                       1.3616147
    17   7 N       18   6 C                                       1.4383569
    20   6 C       21   6 C                                       1.3890735
    21   6 C       22   6 C                                       1.3848095
    22   6 C       23   6 C                                       1.3894877
    23   6 C       24   8 O                                       1.3430119
    24   8 O       25   6 C                                       1.4094147
    23   6 C       26   6 C                                       1.4250025
    26   6 C       27   8 O                                       1.3448127
    27   8 O       28   6 C                                       1.4084787
    20   6 C       29   6 C                                       1.3921487
    26   6 C       29   6 C                                       1.3873360
    17   7 N       30   6 C                                       1.4400108
     3   6 C       31   6 C                                       1.5220607
    31   6 C       32   6 C                                       1.5293476
    31   6 C       33   6 C                                       1.5238356
     5   6 C       34   1 H                                       1.0782910
     8   6 C       35   1 H                                       1.0938643
     8   6 C       36   1 H                                       1.0882868
     8   6 C       37   1 H                                       1.0942315
    11   6 C       38   1 H                                       1.0938231
    11   6 C       39   1 H                                       1.0882461
    11   6 C       40   1 H                                       1.0950291
    12   6 C       41   1 H                                       1.0785451
    13   6 C       42   1 H                                       1.0787856
    14   6 C       43   1 H                                       1.0775395
    14   6 C       44   1 H                                       1.0808493
    15   6 C       45   1 H                                       1.0734481 (min)
    15   6 C       46   1 H                                       1.0735985
     2   6 C       47   1 H                                       1.0959749
    16   6 C       48   1 H                                       1.0823919
    18   6 C       49   1 H                                       1.0934806
    18   6 C       50   1 H                                       1.0929477
    19   6 C       51   1 H                                       1.0915412
    19   6 C       52   1 H                                       1.0907604
    21   6 C       53   1 H                                       1.0792752
    22   6 C       54   1 H                                       1.0777292
    25   6 C       55   1 H                                       1.0940665
    25   6 C       56   1 H                                       1.0938957
    25   6 C       57   1 H                                       1.0883143
    28   6 C       58   1 H                                       1.0882457
    28   6 C       59   1 H                                       1.0944182
    28   6 C       60   1 H                                       1.0941347
    29   6 C       61   1 H                                       1.0787573
    30   6 C       62   1 H                                       1.0948856
    30   6 C       63   1 H                                       1.0910432
    30   6 C       64   1 H                                       1.0879525
    31   6 C       65   1 H                                       1.0994445
    32   6 C       66   1 H                                       1.0881654
    32   6 C       67   1 H                                       1.0873297
    32   6 C       68   1 H                                       1.0864359
    33   6 C       69   1 H                                       1.0878718
    33   6 C       70   1 H                                       1.0864708
    33   6 C       71   1 H                                       1.0865541

 * 4 distinct bonds (by element types)

   Z      Z             #   av. dist./Å        max./Å        min./Å
   1 H    6 C          38     1.0875428     1.0994445     1.0734481
   6 C    6 C          18     1.4253538     1.5303021     1.3390500
   6 C    7 N           4     1.3927282     1.4400108     1.3309304
   6 C    8 O           8     1.3770638     1.4094147     1.3430119


optimized geometry written to: xtbopt.xyz


           -------------------------------------------------
          | TOTAL ENERGY              -99.356374275338 Eh   |
          | GRADIENT NORM               0.003649267719 Eh/α |
          | HOMO-LUMO GAP               0.779529251985 eV   |
           -------------------------------------------------

------------------------------------------------------------------------
 * finished run on 2024/04/06 at 11:13:12.508     
------------------------------------------------------------------------
 total:
 * wall-time:     0 d,  0 h,  0 min, 12.645 sec
 *  cpu-time:     0 d,  0 h,  0 min, 12.611 sec
 * ratio c/w:     0.997 speedup
 SCF:
 * wall-time:     0 d,  0 h,  0 min,  0.190 sec
 *  cpu-time:     0 d,  0 h,  0 min,  0.190 sec
 * ratio c/w:     0.997 speedup
 ANC optimizer:
 * wall-time:     0 d,  0 h,  0 min, 12.400 sec
 *  cpu-time:     0 d,  0 h,  0 min, 12.396 sec
 * ratio c/w:     1.000 speedup

