      -----------------------------------------------------------      
     |                   =====================                   |     
     |                           x T B                           |     
     |                   =====================                   |     
     |                         S. Grimme                         |     
     |          Mulliken Center for Theoretical Chemistry        |     
     |                    University of Bonn                     |     
      -----------------------------------------------------------      

   * xtb version 6.6.1 (8d0f1dd) compiled by 'conda@1efc2f54142f' on 2023-08-01

   xtb is free software: you can redistribute it and/or modify it under
   the terms of the GNU Lesser General Public License as published by
   the Free Software Foundation, either version 3 of the License, or
   (at your option) any later version.
   
   xtb is distributed in the hope that it will be useful,
   but WITHOUT ANY WARRANTY; without even the implied warranty of
   MERCHANTABILITY or FITNESS FOR A PARTICULAR PURPOSE.  See the
   GNU Lesser General Public License for more details.
   
   Cite this work as:
   * C. Bannwarth, E. Caldeweyher, S. Ehlert, A. Hansen, P. Pracht,
     J. Seibert, S. Spicher, S. Grimme, WIREs Comput. Mol. Sci., 2020, 11,
     e01493. DOI: 10.1002/wcms.1493
   
   for GFN2-xTB:
   * C. Bannwarth, S. Ehlert and S. Grimme., J. Chem. Theory Comput., 2019,
     15, 1652-1671. DOI: 10.1021/acs.jctc.8b01176
   for GFN1-xTB:
   * S. Grimme, C. Bannwarth, P. Shushkov, J. Chem. Theory Comput., 2017,
     13, 1989-2009. DOI: 10.1021/acs.jctc.7b00118
   for GFN0-xTB:
   * P. Pracht, E. Caldeweyher, S. Ehlert, S. Grimme, ChemRxiv, 2019, preprint.
     DOI: 10.26434/chemrxiv.8326202.v1
   for GFN-FF:
   * S. Spicher and S. Grimme, Angew. Chem. Int. Ed., 2020, 59, 15665-15673.
     DOI: 10.1002/anie.202004239
   
   for ALPB and GBSA implicit solvation:
   * S. Ehlert, M. Stahn, S. Spicher, S. Grimme, J. Chem. Theory Comput.,
     2021, 17, 4250-4261. DOI: 10.1021/acs.jctc.1c00471
   
   for DFT-D4:
   * E. Caldeweyher, C. Bannwarth and S. Grimme, J. Chem. Phys., 2017,
     147, 034112. DOI: 10.1063/1.4993215
   * E. Caldeweyher, S. Ehlert, A. Hansen, H. Neugebauer, S. Spicher,
     C. Bannwarth and S. Grimme, J. Chem. Phys., 2019, 150, 154122.
     DOI: 10.1063/1.5090222
   * E. Caldeweyher, J.-M. Mewes, S. Ehlert and S. Grimme, Phys. Chem. Chem. Phys.
     2020, 22, 8499-8512. DOI: 10.1039/D0CP00502A
   
   for sTDA-xTB:
   * S. Grimme and C. Bannwarth, J. Chem. Phys., 2016, 145, 054103.
     DOI: 10.1063/1.4959605
   
   in the mass-spec context:
   * V. Asgeirsson, C. Bauer and S. Grimme, Chem. Sci., 2017, 8, 4879.
     DOI: 10.1039/c7sc00601b
   * J. Koopman and S. Grimme, ACS Omega 2019, 4, 12, 15120-15133.
     DOI: 10.1021/acsomega.9b02011
   
   for metadynamics refer to:
   * S. Grimme, J. Chem. Theory Comput., 2019, 155, 2847-2862
     DOI: 10.1021/acs.jctc.9b00143
   
   for SPH calculations refer to:
   * S. Spicher and S. Grimme, J. Chem. Theory Comput., 2021, 17, 1701-1714
     DOI: 10.1021/acs.jctc.0c01306
   
   with help from (in alphabetical order)
   P. Atkinson, C. Bannwarth, F. Bohle, G. Brandenburg, E. Caldeweyher
   M. Checinski, S. Dohm, S. Ehlert, S. Ehrlich, I. Gerasimov, C. Hölzer
   A. Katbashev, J. Koopman, C. Lavigne, S. Lehtola, F. März, M. Müller,
   F. Musil, H. Neugebauer, J. Pisarek, C. Plett, P. Pracht, F. Pultar,
   J. Seibert, P. Shushkov, S. Spicher, M. Stahn, M. Steiner, T. Strunk,
   J. Stückrath, T. Rose, and J. Unsleber
   
 * started run on 2024/04/06 at 11:13:12.544     

           -------------------------------------------------
          |                Calculation Setup                |
           -------------------------------------------------

          program call               : xtb xtbopt.xyz --opt crude --input .xc2 --gfn2
          hostname                   : n-62-30-23
          coordinate file            : xtbopt.xyz
          omp threads                :                     1

   ID    Z sym.   atoms
    1    7 N      1, 17
    2    6 C      2-6, 8, 9, 11-16, 18-23, 25, 26, 28-33
    3    8 O      7, 10, 24, 27
    4    1 H      34-72

molecular fragmentation (1/2 indicates fragments):
111111111111112222222222222222111111111111112212222222222222222211111111
# atoms in fragment 1/2:    37    35
 fragment masses (1/2) :      234.31      221.30
CMA distance (Bohr)    :  15.800
constraining FC (au)   :  0.0500
########################################################################
[WARNING] Please study the warnings concerning your input carefully
-1- readin_getIntValue: could not parse ''
########################################################################

           -------------------------------------------------
          |                 G F N 2 - x T B                 |
           -------------------------------------------------

        Reference                      10.1021/acs.jctc.8b01176
      * Hamiltonian:
        H0-scaling (s, p, d)           1.850000    2.230000    2.230000
        zeta-weighting                 0.500000
      * Dispersion:
        s8                             2.700000
        a1                             0.520000
        a2                             5.000000
        s9                             5.000000
      * Repulsion:
        kExp                           1.500000    1.000000
        rExp                           1.000000
      * Coulomb:
        alpha                          2.000000
        third order                    shell-resolved
        anisotropic                    true
        a3                             3.000000
        a5                             4.000000
        cn-shift                       1.200000
        cn-exp                         4.000000
        max-rad                        5.000000

q/qsh data taken from xtbrestart
CAMM data taken from xtbrestart

          ...................................................
          :                      SETUP                      :
          :.................................................:
          :  # basis functions                 171          :
          :  # atomic orbitals                 171          :
          :  # shells                          105          :
          :  # electrons                       180          :
          :  max. iterations                   250          :
          :  Hamiltonian                  GFN2-xTB          :
          :  restarted?                       true          :
          :  GBSA solvation                  false          :
          :  PC potential                    false          :
          :  electronic temp.         5000.0000000     K    :
          :  accuracy                    1.0000000          :
          :  -> integral cutoff          0.2500000E+02      :
          :  -> integral neglect         0.1000000E-07      :
          :  -> SCF convergence          0.1000000E-05 Eh   :
          :  -> wf. convergence          0.1000000E-03 e    :
          :  Broyden damping             0.4000000          :
          ...................................................

 iter      E             dE          RMSdq      gap      omega  full diag
   1   -100.7501058 -0.100750E+03  0.388E-05    0.78       0.0  T
   2   -100.7501058  0.751129E-09  0.766E-05    0.78     153.8  T
   3   -100.7501058 -0.880632E-09  0.153E-05    0.78     771.4  T

   *** convergence criteria satisfied after 3 iterations ***

         #    Occupation            Energy/Eh            Energy/eV
      -------------------------------------------------------------
         1        2.0000           -0.8175936             -22.2479
       ...           ...                  ...                  ...
        84        1.9907           -0.5144409             -13.9986
        85        1.9728           -0.4972359             -13.5305
        86        1.9656           -0.4934706             -13.4280
        87        1.8680           -0.4713620             -12.8264
        88        1.8163           -0.4656877             -12.6720
        89        1.8011           -0.4643008             -12.6343
        90        1.6868           -0.4560743             -12.4104 (HOMO)
        91        0.9375           -0.4274293             -11.6309 (LUMO)
        92        0.0024           -0.3231289              -8.7928
        93        0.0020           -0.3201077              -8.7106
        94        0.0017           -0.3171954              -8.6313
        95        0.0015           -0.3153041              -8.5799
       ...           ...                  ...                  ...
       171                          0.5691462              15.4873
      -------------------------------------------------------------
                  HL-Gap            0.0286450 Eh            0.7795 eV
             Fermi-level           -0.4294111 Eh          -11.6849 eV

 SCC (total)                   0 d,  0 h,  0 min,  0.121 sec
 SCC setup                      ...        0 min,  0.001 sec (  0.902%)
 Dispersion                     ...        0 min,  0.002 sec (  1.558%)
 classical contributions        ...        0 min,  0.000 sec (  0.402%)
 integral evaluation            ...        0 min,  0.020 sec ( 16.753%)
 iterations                     ...        0 min,  0.028 sec ( 22.994%)
 molecular gradient             ...        0 min,  0.069 sec ( 56.851%)
 printout                       ...        0 min,  0.001 sec (  0.528%)

         :::::::::::::::::::::::::::::::::::::::::::::::::::::
         ::                     SUMMARY                     ::
         :::::::::::::::::::::::::::::::::::::::::::::::::::::
         :: total energy             -99.356376897353 Eh    ::
         :: gradient norm              0.003761603848 Eh/a0 ::
         :: HOMO-LUMO gap              0.779469893039 eV    ::
         ::.................................................::
         :: SCC energy              -100.750105771934 Eh    ::
         :: -> isotropic ES            0.104690357171 Eh    ::
         :: -> anisotropic ES          0.004884455623 Eh    ::
         :: -> anisotropic XC          0.044097832653 Eh    ::
         :: -> dispersion             -0.071900569712 Eh    ::
         :: repulsion energy           1.392448908151 Eh    ::
         :: add. restraining           0.000000000000 Eh    ::
         :: total charge               1.000000000002 e     ::
         :::::::::::::::::::::::::::::::::::::::::::::::::::::

      ----------------------------------------------------------- 
     |                   =====================                   |
     |                        A N C O P T                        |
     |                   =====================                   |
     |               Approximate Normal Coordinate               |
     |                Rational Function Optimizer                |
      ----------------------------------------------------------- 

          ...................................................
          :                      SETUP                      :
          :.................................................:
          :   optimization level             crude          :
          :   max. optcycles                   200          :
          :   ANC micro-cycles                  20          :
          :   degrees of freedom               210          :
          :.................................................:
          :   RF solver                   davidson          :
          :   write xtbopt.log                true          :
          :   linear?                        false          :
          :   energy convergence         0.5000000E-03 Eh   :
          :   grad. convergence          0.1000000E-01 Eh/α :
          :   maxmium RF displ.          1.0000000          :
          :   Hlow (freq-cutoff)         0.1000000E-01      :
          :   Hmax (freq-cutoff)         5.0000000          :
          :   S6 in model hess.         20.0000000          :
          ...................................................

generating ANC from model Hessian ...
Using Lindh-Hessian (1995)
 Shifting diagonal of input Hessian by    1.0018388989826318E-002
 Lowest  eigenvalues of input Hessian
    0.010000    0.000000    0.000000    0.000000    0.000000    0.000000
    0.000000    0.010025    0.010099    0.010126    0.010205    0.010380
    0.010490    0.010528    0.010603    0.010787    0.010888    0.010975
 Highest eigenvalues
    1.927186    2.044102    2.046060    2.112566    2.182370    2.185081


........................................................................
.............................. CYCLE    1 ..............................
........................................................................

 iter      E             dE          RMSdq      gap      omega  full diag
   1   -100.7501058 -0.100750E+03  0.100E-05    0.78       0.0  T
   2   -100.7501058  0.167120E-10  0.133E-05    0.78     888.0  T
   3   -100.7501058 -0.250964E-10  0.559E-06    0.78    2106.8  T
     SCC iter.                  ...        0 min,  0.027 sec
     gradient                   ...        0 min,  0.068 sec
 * total energy  :   -99.3563769 Eh     change       -0.8895995E-11 Eh
   gradient norm :     0.0037615 Eh/α   predicted     0.0000000E+00 (-100.00%)
   displ. norm   :     0.0463198 α      lambda       -0.4886106E-04
   maximum displ.:     0.0225696 α      in ANC's #9, #12, #3, ...

   *** GEOMETRY OPTIMIZATION CONVERGED AFTER 1 ITERATIONS ***

------------------------------------------------------------------------
 total energy gain   :        -0.0000000 Eh       -0.0000 kcal/mol
 total RMSD          :         0.0000000 a0        0.0000 Å
 total power (kW/mol):        -0.0000000 (step)   -0.0000 (real)
------------------------------------------------------------------------

 ANCopt (total)                0 d,  0 h,  0 min,  0.171 sec
 optimizer setup                ...        0 min,  0.000 sec (  0.139%)
 model hessian                  ...        0 min,  0.045 sec ( 26.558%)
 ANC generation                 ...        0 min,  0.006 sec (  3.702%)
 coordinate transformation      ...        0 min,  0.000 sec (  0.027%)
 single point calculation       ...        0 min,  0.117 sec ( 68.176%)
 optimization log               ...        0 min,  0.002 sec (  1.213%)
 hessian update                 ...        0 min,  0.000 sec (  0.001%)
 rational function              ...        0 min,  0.000 sec (  0.121%)

================
 final structure:
================
72
 xtb: 6.6.1 (8d0f1dd)
N           -1.80279947535263        3.84921471598741        1.36742193553157
C           -2.08693186548882        2.83634316498940        0.55210885187994
C           -3.61258772996000        2.35895157396385        0.40440469268851
C           -3.74793383784456        0.88215924158281        0.25971440542566
C           -4.49907402807624        0.37593544444876       -0.80108742241710
C           -4.69771298696522       -0.98781727833274       -0.95150060155065
O           -5.40996973942572       -1.57053442622125       -1.93322020887528
C           -6.07537926763164       -0.76404167689006       -2.87778607253963
C           -4.12344515834729       -1.88471481753669       -0.00710417716615
O           -4.37070388146149       -3.19100458660400       -0.22544307860046
C           -3.93251944528342       -4.14167786237935        0.71746693078559
C           -3.36812607398123       -1.36931196188137        1.03690861208065
C           -3.18069442465352       -0.00147047689693        1.16746935877323
C           -2.94558233327654        3.09560668397141       -0.68778058386515
C           -1.30334764616498       -0.23661465667767       -2.16043914610031
C           -0.17428398054792        0.12397810201199       -1.53734801459194
N            0.49222203690564       -0.58928634388514       -0.58812845012220
C            1.84620414880532       -0.23497059014292       -0.25637103773285
C            2.87181601613803       -0.85689800885933       -1.23113833791739
C            4.27039596808750       -0.48703019913974       -0.83802027794554
C            4.82168414937407        0.72418341517522       -1.23622582409616
C            6.10837287437716        1.07716208669910       -0.86536839893730
C            6.87733963985485        0.22531267288457       -0.08196662755188
O            8.13492393945306        0.45650026532884        0.32878229045704
C            8.78580828423031        1.64328583564962       -0.06407770431514
C            6.31912787255983       -1.01643557985806        0.33885713569697
O            7.13071032473407       -1.78152955909525        1.09017997891147
C            6.68589040302291       -3.04484928883939        1.52603586869746
C            5.02652057792246       -1.34447655948387       -0.04357766087332
C            0.03473415862547       -1.90865460218258       -0.23655651736994
C           -4.67274270188783        2.99587674589067        1.29157207540374
C           -4.49944365214659        2.56389678355627        2.74837143680894
C           -4.71699098362054        4.51655624630193        1.20410443103349
H           -4.94046638143351        1.06991457525598       -1.49842310316437
H           -6.79682047183097       -0.09701403289855       -2.39702050802060
H           -6.60362876046119       -1.45603461398860       -3.53082993242407
H           -5.36922409809554       -0.17423275062430       -3.47008055826604
H           -4.33667799723809       -3.93472812351104        1.71259330581164
H           -4.31276200232670       -5.09868141369235        0.36555900174110
H           -2.83948551449243       -4.18394058656257        0.76825295166881
H           -2.93252761315638       -2.02966693691323        1.77001471555422
H           -2.58343873181459        0.37079054635193        1.98507893607443
H           -3.20459999511813        4.12818758775510       -0.85444686365887
H           -2.65398704451414        2.54374274147762       -1.57019399887346
H           -1.79807168850509       -1.17546176485587       -1.99886938548126
H           -1.75489129763164        0.42473271483553       -2.87552054573748
H           -1.40676772535838        1.98136143670677        0.46525421989665
H            0.27863686463604        1.08135786653500       -1.76063844843751
H            2.06318545667288       -0.57561678185435        0.75978787277398
H            1.94776888523180        0.85299339734285       -0.27989527179372
H            2.65593583098337       -0.49356764012434       -2.23754218704436
H            2.75526200248661       -1.94138518686688       -1.22334876826572
H            4.24853537575542        1.39822943415618       -1.85428512071002
H            6.51106183393130        2.02025287069345       -1.19691218370287
H            8.27164471550152        2.52840670665248        0.32215831250249
H            8.86701294520359        1.71303481263647       -1.15272299098991
H            9.78230480165037        1.58664881908403        0.36975958324029
H            7.51652904587586       -3.46959835464589        2.08630911456103
H            5.81399787722092       -2.95821934347049        2.18181758125020
H            6.44672640402703       -3.69796719781252        0.68142462209910
H            4.59805766480480       -2.28565239999240        0.26354554545748
H            0.15238956971134       -2.61597164540797       -1.06398263667323
H           -1.02200680872044       -1.86282095340221        0.03097447461139
H            0.59972897770951       -2.27044133906071        0.61990804874354
H           -5.63263488322334        2.59560062658061        0.93497129006306
H           -3.54706091122939        2.93107223144474        3.12553600018531
H           -4.53351718921578        1.48154545691164        2.84655571469538
H           -5.29493380778964        2.98543422473298        3.35651972118251
H           -3.73906198141623        4.92486051530120        1.44988345512903
H           -5.01214288761919        4.85119212659798        0.21348705159498
H           -5.44282136614828        4.89809382014297        1.91698519392144
H           -1.03021467865759        3.70404357337146        1.99934277160800

 Bond Distances (Angstroems)
 ---------------------------
N1-C2=1.3309         N1-H72=1.0086        C2-N1=1.3309         C2-C3=1.6054         C2-C14=1.5303        C2-H47=1.0960        
C3-C2=1.6054         C3-C4=1.4900         C3-C14=1.4766        C3-C31=1.5221        C4-C3=1.4900         C4-C5=1.3949         
C4-C13=1.3880        C5-C4=1.3949         C5-C6=1.3863         C5-H34=1.0783        C6-C5=1.3863         C6-O7=1.3456         
C6-C9=1.4234         O7-C6=1.3456         O7-C8=1.4090         C8-O7=1.4090         C8-H35=1.0939        C8-H36=1.0883        
C8-H37=1.0942        C9-C6=1.4234         C9-O10=1.3473        C9-C12=1.3878        O10-C9=1.3473        O10-C11=1.4089       
C11-O10=1.4089       C11-H38=1.0938       C11-H39=1.0882       C11-H40=1.0950       C12-C9=1.3878        C12-C13=1.3868       
C12-H41=1.0785       C13-C4=1.3880        C13-C12=1.3868       C13-H42=1.0788       C14-C2=1.5303        C14-C3=1.4766        
C14-H43=1.0775       C14-H44=1.0808       C15-C16=1.3390       C15-H45=1.0734       C15-H46=1.0736       C16-C15=1.3390       
C16-N17=1.3616       C16-H48=1.0824       N17-C16=1.3616       N17-C18=1.4384       N17-C30=1.4400       C18-N17=1.4384       
C18-C19=1.5456       C18-H49=1.0935       C18-H50=1.0929       C19-C18=1.5456       C19-C20=1.4991       C19-H51=1.0915       
C19-H52=1.0908       C20-C19=1.4991       C20-C21=1.3891       C20-C29=1.3921       C21-C20=1.3891       C21-C22=1.3848       
C21-H53=1.0793       C22-C21=1.3848       C22-C23=1.3895       C22-H54=1.0777       C23-C22=1.3895       C23-O24=1.3430       
C23-C26=1.4250       O24-C23=1.3430       O24-C25=1.4094       C25-O24=1.4094       C25-H55=1.0941       C25-H56=1.0939       
C25-H57=1.0883       C26-C23=1.4250       C26-O27=1.3448       C26-C29=1.3873       O27-C26=1.3448       O27-C28=1.4085       
C28-O27=1.4085       C28-H58=1.0882       C28-H59=1.0944       C28-H60=1.0941       C29-C20=1.3921       C29-C26=1.3873       
C29-H61=1.0788       C30-N17=1.4400       C30-H62=1.0949       C30-H63=1.0910       C30-H64=1.0880       C31-C3=1.5221        
C31-C32=1.5293       C31-C33=1.5238       C31-H65=1.0994       C32-C31=1.5293       C32-H66=1.0882       C32-H67=1.0873       
C32-H68=1.0864       C33-C31=1.5238       C33-H69=1.0879       C33-H70=1.0865       C33-H71=1.0866       H34-C5=1.0783        
H35-C8=1.0939        H36-C8=1.0883        H37-C8=1.0942        H38-C11=1.0938       H39-C11=1.0882       H40-C11=1.0950       
H41-C12=1.0785       H42-C13=1.0788       H43-C14=1.0775       H44-C14=1.0808       H45-C15=1.0734       H46-C15=1.0736       
H47-C2=1.0960        H48-C16=1.0824       H49-C18=1.0935       H50-C18=1.0929       H51-C19=1.0915       H52-C19=1.0908       
H53-C21=1.0793       H54-C22=1.0777       H55-C25=1.0941       H56-C25=1.0939       H57-C25=1.0883       H58-C28=1.0882       
H59-C28=1.0944       H60-C28=1.0941       H61-C29=1.0788       H62-C30=1.0949       H63-C30=1.0910       H64-C30=1.0880       
H65-C31=1.0994       H66-C32=1.0882       H67-C32=1.0873       H68-C32=1.0864       H69-C33=1.0879       H70-C33=1.0865       
H71-C33=1.0866       H72-N1=1.0086        
 C  H  Rav=1.0875 sigma=0.0068  Rmin=1.0734  Rmax=1.0994    38
 C  C  Rav=1.4453 sigma=0.0714  Rmin=1.3390  Rmax=1.6054    22
 N  H  Rav=1.0086 sigma=0.0000  Rmin=1.0086  Rmax=1.0086     1
 N  C  Rav=1.3927 sigma=0.0477  Rmin=1.3309  Rmax=1.4400     4
 O  C  Rav=1.3771 sigma=0.0319  Rmin=1.3430  Rmax=1.4094     8

 selected bond angles (degree)
 --------------------
H72-N1-C2=115.96               C3-C2-N1=119.05                C14-C2-N1=119.16               C14-C2-C3= 56.12               
H47-C2-N1=120.65               H47-C2-C3=110.52               H47-C2-C14=114.59              C4-C3-C2=112.95                
C14-C3-C2= 59.37               C14-C3-C4=117.62               C31-C3-C2=118.94               C31-C3-C4=114.08               
C31-C3-C14=122.48              C5-C4-C3=118.85                C13-C4-C3=122.03               C13-C4-C5=119.10               
C6-C5-C4=121.11                H34-C5-C4=118.60               H34-C5-C6=120.28               O7-C6-C5=125.52                
C9-C6-C5=119.34                C9-C6-O7=115.13                C8-O7-C6=119.42                H35-C8-O7=111.46               
H36-C8-O7=105.52               H36-C8-H35=109.35              H37-C8-O7=111.51               H37-C8-H35=109.56              
H37-C8-H36=109.34              O10-C9-C6=115.43               C12-C9-C6=118.99               C12-C9-O10=125.58              
C11-O10-C9=119.26              

 selected dihedral angles (degree)
 ---------------------------------
C3-C2-N1-H72=132.42           C14-C2-N1-H72=197.57          H47-C2-N1-H72=349.76          C4-C3-C2-N1=216.89            
C4-C3-C2-C14=109.54           C4-C3-C2-H47=  3.04           C14-C3-C2-N1=107.36           C14-C3-C2-H47=253.50          
C31-C3-C2-N1=354.67           C31-C3-C2-C14=247.31          C31-C3-C2-H47=140.82          C5-C4-C3-C2=231.56            
C5-C4-C3-C14=297.79           C5-C4-C3-C31= 91.66           C13-C4-C3-C2= 53.35           C13-C4-C3-C14=119.58          
C13-C4-C3-C31=273.45          C6-C5-C4-C3=182.45            C6-C5-C4-C13=  0.72           H34-C5-C4-C3=  1.41           
H34-C5-C4-C13=179.67          O7-C6-C5-C4=179.61            O7-C6-C5-H34=  0.67           C9-C6-C5-C4=359.94            
C9-C6-C5-H34=181.00           C8-O7-C6-C5=357.07            C8-O7-C6-C9=176.76            H35-C8-O7-C6=300.82           
H36-C8-O7-C6=182.22           H37-C8-O7-C6= 63.61           O10-C9-C6-C5=179.73           O10-C9-C6-O7=  0.03           
C12-C9-C6-C5=359.48           C12-C9-C6-O7=179.77           C11-O10-C9-C6=185.05          C11-O10-C9-C12=  5.32         

 CMA Distance (Angstroems)
 ---------------------------
R(CMA):  8.3612
           -------------------------------------------------
          |                Final Singlepoint                |
           -------------------------------------------------

          ...................................................
          :                      SETUP                      :
          :.................................................:
          :  # basis functions                 171          :
          :  # atomic orbitals                 171          :
          :  # shells                          105          :
          :  # electrons                       180          :
          :  max. iterations                   250          :
          :  Hamiltonian                  GFN2-xTB          :
          :  restarted?                      false          :
          :  GBSA solvation                  false          :
          :  PC potential                    false          :
          :  electronic temp.         5000.0000000     K    :
          :  accuracy                    1.0000000          :
          :  -> integral cutoff          0.2500000E+02      :
          :  -> integral neglect         0.1000000E-07      :
          :  -> SCF convergence          0.1000000E-05 Eh   :
          :  -> wf. convergence          0.1000000E-03 e    :
          :  Broyden damping             0.4000000          :
          ...................................................

 iter      E             dE          RMSdq      gap      omega  full diag
   1   -100.7501058 -0.100750E+03  0.277E-06    0.78       0.0  T
   2   -100.7501058  0.112266E-11  0.408E-06    0.78    2887.5  T
   3   -100.7501058 -0.211742E-11  0.164E-06    0.78    7178.2  T

   *** convergence criteria satisfied after 3 iterations ***

         #    Occupation            Energy/Eh            Energy/eV
      -------------------------------------------------------------
         1        2.0000           -0.8175936             -22.2479
       ...           ...                  ...                  ...
        84        1.9907           -0.5144408             -13.9986
        85        1.9728           -0.4972358             -13.5305
        86        1.9656           -0.4934707             -13.4280
        87        1.8679           -0.4713618             -12.8264
        88        1.8163           -0.4656877             -12.6720
        89        1.8011           -0.4643008             -12.6343
        90        1.6868           -0.4560744             -12.4104 (HOMO)
        91        0.9375           -0.4274291             -11.6309 (LUMO)
        92        0.0024           -0.3231289              -8.7928
        93        0.0020           -0.3201077              -8.7106
        94        0.0017           -0.3171956              -8.6313
        95        0.0015           -0.3153043              -8.5799
       ...           ...                  ...                  ...
       171                          0.5691460              15.4873
      -------------------------------------------------------------
                  HL-Gap            0.0286453 Eh            0.7795 eV
             Fermi-level           -0.4294110 Eh          -11.6849 eV

 SCC (total)                   0 d,  0 h,  0 min,  0.113 sec
 SCC setup                      ...        0 min,  0.001 sec (  0.772%)
 Dispersion                     ...        0 min,  0.001 sec (  1.070%)
 classical contributions        ...        0 min,  0.000 sec (  0.387%)
 integral evaluation            ...        0 min,  0.017 sec ( 14.837%)
 iterations                     ...        0 min,  0.024 sec ( 21.600%)
 molecular gradient             ...        0 min,  0.069 sec ( 60.834%)
 printout                       ...        0 min,  0.001 sec (  0.486%)

         :::::::::::::::::::::::::::::::::::::::::::::::::::::
         ::                     SUMMARY                     ::
         :::::::::::::::::::::::::::::::::::::::::::::::::::::
         :: total energy             -99.356376897365 Eh    ::
         :: gradient norm              0.003761556348 Eh/a0 ::
         :: HOMO-LUMO gap              0.779477604750 eV    ::
         ::.................................................::
         :: SCC energy              -100.750105771946 Eh    ::
         :: -> isotropic ES            0.104690124185 Eh    ::
         :: -> anisotropic ES          0.004884414656 Eh    ::
         :: -> anisotropic XC          0.044097844467 Eh    ::
         :: -> dispersion             -0.071900569016 Eh    ::
         :: repulsion energy           1.392448908151 Eh    ::
         :: add. restraining           0.000000000000 Eh    ::
         :: total charge               1.000000000002 e     ::
         :::::::::::::::::::::::::::::::::::::::::::::::::::::

           -------------------------------------------------
          |                Property Printout                |
           -------------------------------------------------

    * Orbital Energies and Occupations

         #    Occupation            Energy/Eh            Energy/eV
      -------------------------------------------------------------
         1        2.0000           -0.8175936             -22.2479
       ...           ...                  ...                  ...
        78        1.9976           -0.5357850             -14.5795
        79        1.9970           -0.5320948             -14.4790
        80        1.9958           -0.5271012             -14.3432
        81        1.9948           -0.5235734             -14.2472
        82        1.9939           -0.5210192             -14.1777
        83        1.9925           -0.5177177             -14.0878
        84        1.9907           -0.5144408             -13.9986
        85        1.9728           -0.4972358             -13.5305
        86        1.9656           -0.4934707             -13.4280
        87        1.8679           -0.4713618             -12.8264
        88        1.8163           -0.4656877             -12.6720
        89        1.8011           -0.4643008             -12.6343
        90        1.6868           -0.4560744             -12.4104 (HOMO)
        91        0.9375           -0.4274291             -11.6309 (LUMO)
        92        0.0024           -0.3231289              -8.7928
        93        0.0020           -0.3201077              -8.7106
        94        0.0017           -0.3171956              -8.6313
        95        0.0015           -0.3153043              -8.5799
        96        0.0003           -0.2915915              -7.9346
        97        0.0000           -0.1978323              -5.3833
        98        0.0000           -0.1920002              -5.2246
        99        0.0000           -0.1734587              -4.7201
       100                         -0.0993649              -2.7039
       101                         -0.0707443              -1.9251
       ...                                ...                  ...
       171                          0.5691460              15.4873
      -------------------------------------------------------------
                  HL-Gap            0.0286453 Eh            0.7795 eV
             Fermi-level           -0.4294110 Eh          -11.6849 eV

     #   Z          covCN         q      C6AA      α(0)
     1   7 N        1.773    -0.312    28.905     7.961
     2   6 C        3.773     0.100    18.971     6.206
     3   6 C        3.907     0.028    20.045     6.364
     4   6 C        2.970     0.002    27.982     8.677
     5   6 C        2.920    -0.073    29.830     8.956
     6   6 C        2.862     0.136    25.037     8.202
     7   8 O        1.706    -0.221    17.668     5.675
     8   6 C        3.645     0.025    20.499     6.507
     9   6 C        2.864     0.131    25.123     8.216
    10   8 O        1.706    -0.224    17.714     5.682
    11   6 C        3.645     0.025    20.482     6.505
    12   6 C        2.913    -0.072    29.790     8.950
    13   6 C        2.920    -0.045    29.119     8.849
    14   6 C        3.809    -0.068    21.787     6.644
    15   6 C        2.838    -0.120    31.051     9.132
    16   6 C        2.841     0.020    27.549     8.602
    17   7 N        2.732    -0.047    22.141     6.989
    18   6 C        3.752    -0.007    20.753     6.496
    19   6 C        3.807    -0.071    21.849     6.654
    20   6 C        2.967     0.009    27.825     8.652
    21   6 C        2.922    -0.044    29.086     8.844
    22   6 C        2.913    -0.065    29.612     8.923
    23   6 C        2.864     0.136    25.024     8.200
    24   8 O        1.706    -0.213    17.540     5.655
    25   6 C        3.645     0.023    20.529     6.512
    26   6 C        2.862     0.136    25.024     8.200
    27   8 O        1.706    -0.216    17.593     5.663
    28   6 C        3.645     0.025    20.497     6.507
    29   6 C        2.919    -0.076    29.902     8.967
    30   6 C        3.700    -0.057    21.768     6.672
    31   6 C        3.852    -0.003    20.606     6.456
    32   6 C        3.756    -0.113    22.715     6.795
    33   6 C        3.755    -0.124    22.938     6.829
    34   1 H        0.926     0.058     2.221     2.330
    35   1 H        0.924     0.057     2.236     2.338
    36   1 H        0.925     0.084     1.935     2.175
    37   1 H        0.924     0.054     2.268     2.355
    38   1 H        0.924     0.057     2.229     2.335
    39   1 H        0.925     0.084     1.938     2.177
    40   1 H        0.924     0.049     2.334     2.389
    41   1 H        0.926     0.054     2.268     2.355
    42   1 H        0.926     0.052     2.292     2.368
    43   1 H        0.926     0.088     1.902     2.157
    44   1 H        0.926     0.057     2.235     2.338
    45   1 H        0.926     0.046     2.374     2.409
    46   1 H        0.926     0.046     2.373     2.409
    47   1 H        0.924     0.014     2.824     2.628
    48   1 H        0.925     0.049     2.328     2.386
    49   1 H        0.924     0.055     2.254     2.348
    50   1 H        0.924     0.059     2.216     2.328
    51   1 H        0.924     0.057     2.237     2.339
    52   1 H        0.924     0.054     2.266     2.354
    53   1 H        0.926     0.053     2.287     2.365
    54   1 H        0.926     0.062     2.174     2.305
    55   1 H        0.924     0.059     2.214     2.327
    56   1 H        0.924     0.060     2.200     2.320
    57   1 H        0.925     0.086     1.922     2.168
    58   1 H        0.925     0.085     1.930     2.172
    59   1 H        0.924     0.054     2.272     2.357
    60   1 H        0.924     0.057     2.235     2.338
    61   1 H        0.926     0.054     2.276     2.359
    62   1 H        0.924     0.061     2.192     2.315
    63   1 H        0.924     0.065     2.136     2.286
    64   1 H        0.925     0.062     2.176     2.307
    65   1 H        0.923     0.055     2.256     2.349
    66   1 H        0.925     0.055     2.257     2.349
    67   1 H        0.925     0.041     2.436     2.441
    68   1 H        0.925     0.056     2.246     2.344
    69   1 H        0.925     0.085     1.930     2.173
    70   1 H        0.925     0.046     2.368     2.407
    71   1 H        0.925     0.057     2.230     2.335
    72   1 H        0.860     0.150     1.404     1.856

 Mol. C6AA /au·bohr⁶  :      47465.650106
 Mol. C8AA /au·bohr⁸  :    1082400.695147
 Mol. α(0) /au        :        334.536386


Wiberg/Mayer (AO) data.
largest (>0.10) Wiberg bond orders for each atom

 ---------------------------------------------------------------------------
     #   Z sym  total        # sym  WBO       # sym  WBO       # sym  WBO
 ---------------------------------------------------------------------------
     1   7 N    2.405 --     2 C    1.363    72 H    0.948
     2   6 C    3.854 --     1 N    1.363    47 H    0.940    14 C    0.841
                             3 C    0.681
     3   6 C    3.748 --     4 C    1.004    14 C    1.003    31 C    0.978
                             2 C    0.681
     4   6 C    3.936 --    13 C    1.395     5 C    1.369     3 C    1.004
     5   6 C    3.945 --     6 C    1.391     4 C    1.369    34 H    0.962
     6   6 C    3.894 --     5 C    1.391     9 C    1.215     7 O    1.110
     7   8 O    2.254 --     6 C    1.110     8 C    0.975
     8   6 C    3.927 --    36 H    0.976     7 O    0.975    35 H    0.972
                            37 H    0.972
     9   6 C    3.885 --    12 C    1.382     6 C    1.215    10 O    1.107
    10   8 O    2.248 --     9 C    1.107    11 C    0.977
    11   6 C    3.929 --    10 O    0.977    39 H    0.976    38 H    0.973
                            40 H    0.972
    12   6 C    3.958 --    13 C    1.413     9 C    1.382    41 H    0.962
    13   6 C    3.935 --    12 C    1.413     4 C    1.395    42 H    0.966
    14   6 C    3.855 --     3 C    1.003    44 H    0.968    43 H    0.965
                             2 C    0.841
    15   6 C    3.801 --    16 C    1.731    46 H    0.977    45 H    0.973
    16   6 C    3.943 --    15 C    1.731    17 N    1.203    48 H    0.957
    17   7 N    3.352 --    16 C    1.203    30 C    1.007    18 C    1.006
    18   6 C    3.961 --    17 N    1.006    49 H    0.968    50 H    0.968
                            19 C    0.959
    19   6 C    3.970 --    20 C    1.016    52 H    0.972    51 H    0.969
                            18 C    0.959
    20   6 C    3.924 --    21 C    1.387    29 C    1.385    19 C    1.016
    21   6 C    3.926 --    22 C    1.428    20 C    1.387    53 H    0.967
    22   6 C    3.948 --    21 C    1.428    23 C    1.371    54 H    0.962
    23   6 C    3.871 --    22 C    1.371    26 C    1.207    24 O    1.120
    24   8 O    2.249 --    23 C    1.120    25 C    0.974
    25   6 C    3.923 --    57 H    0.976    24 O    0.974    56 H    0.971
                            55 H    0.971
    26   6 C    3.878 --    29 C    1.386    23 C    1.207    27 O    1.114
    27   8 O    2.250 --    26 C    1.114    28 C    0.976
    28   6 C    3.927 --    58 H    0.976    27 O    0.976    59 H    0.972
                            60 H    0.972
    29   6 C    3.948 --    26 C    1.386    20 C    1.385    61 H    0.961
    30   6 C    3.965 --    17 N    1.007    64 H    0.980    63 H    0.966
                            62 H    0.966
    31   6 C    3.968 --    33 C    1.008    32 C    0.996     3 C    0.978
                            65 H    0.937
    32   6 C    3.973 --    31 C    0.996    68 H    0.982    67 H    0.980
                            66 H    0.978
    33   6 C    3.964 --    31 C    1.008    70 H    0.979    71 H    0.978
                            69 H    0.959
    34   1 H    0.995 --     5 C    0.962
    35   1 H    0.991 --     8 C    0.972
    36   1 H    0.992 --     8 C    0.976
    37   1 H    0.991 --     8 C    0.972
    38   1 H    0.991 --    11 C    0.973
    39   1 H    0.992 --    11 C    0.976
    40   1 H    0.992 --    11 C    0.972
    41   1 H    0.995 --    12 C    0.962
    42   1 H    0.996 --    13 C    0.966
    43   1 H    0.988 --    14 C    0.965
    44   1 H    0.989 --    14 C    0.968
    45   1 H    0.997 --    15 C    0.973
    46   1 H    0.997 --    15 C    0.977
    47   1 H    0.974 --     2 C    0.940
    48   1 H    0.997 --    16 C    0.957
    49   1 H    0.993 --    18 C    0.968
    50   1 H    0.994 --    18 C    0.968
    51   1 H    0.994 --    19 C    0.969
    52   1 H    0.995 --    19 C    0.972
    53   1 H    0.996 --    21 C    0.967
    54   1 H    0.994 --    22 C    0.962
    55   1 H    0.989 --    25 C    0.971
    56   1 H    0.989 --    25 C    0.971
    57   1 H    0.992 --    25 C    0.976
    58   1 H    0.992 --    28 C    0.976
    59   1 H    0.990 --    28 C    0.972
    60   1 H    0.990 --    28 C    0.972
    61   1 H    0.995 --    29 C    0.961
    62   1 H    0.982 --    30 C    0.966
    63   1 H    0.989 --    30 C    0.966
    64   1 H    0.995 --    30 C    0.980
    65   1 H    0.973 --    31 C    0.937
    66   1 H    0.993 --    32 C    0.978
    67   1 H    0.996 --    32 C    0.980
    68   1 H    0.994 --    32 C    0.982
    69   1 H    0.985 --    33 C    0.959
    70   1 H    0.994 --    33 C    0.979
    71   1 H    0.992 --    33 C    0.978
    72   1 H    0.968 --     1 N    0.948
 ---------------------------------------------------------------------------

Topologies differ in total number of bonds
Writing topology from bond orders to xtbtopo.mol

molecular dipole:
                 x           y           z       tot (Debye)
 q only:        0.468      -0.236      -0.182
   full:        0.662      -0.515      -0.236       2.214
molecular quadrupole (traceless):
                xx          xy          yy          xz          yz          zz
 q only:       70.662      -6.559     -23.120       4.591      -9.857     -47.541
  q+dip:       67.834      -2.921     -24.920       4.564     -12.893     -42.914
   full:       68.033      -3.211     -26.153       2.105     -12.583     -41.880

           -------------------------------------------------
          |                Geometry Summary                 |
           -------------------------------------------------

      molecular mass/u    :      455.6105846
   center of mass at/Å    :        0.0155774       0.0435589      -0.0685425
  moments of inertia/u·Å² :        0.2684021E+04   0.1103887E+05   0.1242856E+05
rotational constants/cm⁻¹ :        0.6280738E-02   0.1527116E-02   0.1356362E-02

 * 68 selected distances

     #   Z          #   Z                                           value/Å
     1   7 N        2   6 C                                       1.3309304
     4   6 C        5   6 C                                       1.3949104
     5   6 C        6   6 C                                       1.3863273
     6   6 C        7   8 O                                       1.3456012
     7   8 O        8   6 C                                       1.4090442
     6   6 C        9   6 C                                       1.4234092
     9   6 C       10   8 O                                       1.3472943
    10   8 O       11   6 C                                       1.4088523
     9   6 C       12   6 C                                       1.3878437
     4   6 C       13   6 C                                       1.3880135
    12   6 C       13   6 C                                       1.3867831
     2   6 C       14   6 C                                       1.5303021 (max)
     3   6 C       14   6 C                                       1.4766266
    15   6 C       16   6 C                                       1.3390500
    16   6 C       17   7 N                                       1.3616147
    17   7 N       18   6 C                                       1.4383569
    20   6 C       21   6 C                                       1.3890735
    21   6 C       22   6 C                                       1.3848095
    22   6 C       23   6 C                                       1.3894877
    23   6 C       24   8 O                                       1.3430119
    24   8 O       25   6 C                                       1.4094147
    23   6 C       26   6 C                                       1.4250025
    26   6 C       27   8 O                                       1.3448127
    27   8 O       28   6 C                                       1.4084787
    20   6 C       29   6 C                                       1.3921487
    26   6 C       29   6 C                                       1.3873360
    17   7 N       30   6 C                                       1.4400108
     3   6 C       31   6 C                                       1.5220607
    31   6 C       32   6 C                                       1.5293476
    31   6 C       33   6 C                                       1.5238356
     5   6 C       34   1 H                                       1.0782910
     8   6 C       35   1 H                                       1.0938643
     8   6 C       36   1 H                                       1.0882868
     8   6 C       37   1 H                                       1.0942315
    11   6 C       38   1 H                                       1.0938231
    11   6 C       39   1 H                                       1.0882461
    11   6 C       40   1 H                                       1.0950291
    12   6 C       41   1 H                                       1.0785451
    13   6 C       42   1 H                                       1.0787856
    14   6 C       43   1 H                                       1.0775395
    14   6 C       44   1 H                                       1.0808493
    15   6 C       45   1 H                                       1.0734481 (min)
    15   6 C       46   1 H                                       1.0735985
     2   6 C       47   1 H                                       1.0959749
    16   6 C       48   1 H                                       1.0823919
    18   6 C       49   1 H                                       1.0934806
    18   6 C       50   1 H                                       1.0929477
    19   6 C       51   1 H                                       1.0915412
    19   6 C       52   1 H                                       1.0907604
    21   6 C       53   1 H                                       1.0792752
    22   6 C       54   1 H                                       1.0777292
    25   6 C       55   1 H                                       1.0940665
    25   6 C       56   1 H                                       1.0938957
    25   6 C       57   1 H                                       1.0883143
    28   6 C       58   1 H                                       1.0882457
    28   6 C       59   1 H                                       1.0944182
    28   6 C       60   1 H                                       1.0941347
    29   6 C       61   1 H                                       1.0787573
    30   6 C       62   1 H                                       1.0948856
    30   6 C       63   1 H                                       1.0910432
    30   6 C       64   1 H                                       1.0879525
    31   6 C       65   1 H                                       1.0994445
    32   6 C       66   1 H                                       1.0881654
    32   6 C       67   1 H                                       1.0873297
    32   6 C       68   1 H                                       1.0864359
    33   6 C       69   1 H                                       1.0878718
    33   6 C       70   1 H                                       1.0864708
    33   6 C       71   1 H                                       1.0865541

 * 4 distinct bonds (by element types)

   Z      Z             #   av. dist./Å        max./Å        min./Å
   1 H    6 C          38     1.0875428     1.0994445     1.0734481
   6 C    6 C          18     1.4253538     1.5303021     1.3390500
   6 C    7 N           4     1.3927282     1.4400108     1.3309304
   6 C    8 O           8     1.3770638     1.4094147     1.3430119


optimized geometry written to: xtbopt.xyz


           -------------------------------------------------
          | TOTAL ENERGY              -99.356376897365 Eh   |
          | GRADIENT NORM               0.003761556348 Eh/α |
          | HOMO-LUMO GAP               0.779477604750 eV   |
           -------------------------------------------------

------------------------------------------------------------------------
 * finished run on 2024/04/06 at 11:13:13.004     
------------------------------------------------------------------------
 total:
 * wall-time:     0 d,  0 h,  0 min,  0.459 sec
 *  cpu-time:     0 d,  0 h,  0 min,  0.429 sec
 * ratio c/w:     0.934 speedup
 SCF:
 * wall-time:     0 d,  0 h,  0 min,  0.122 sec
 *  cpu-time:     0 d,  0 h,  0 min,  0.122 sec
 * ratio c/w:     0.997 speedup
 ANC optimizer:
 * wall-time:     0 d,  0 h,  0 min,  0.291 sec
 *  cpu-time:     0 d,  0 h,  0 min,  0.283 sec
 * ratio c/w:     0.974 speedup

