72
 energy: -103.311790549439 gnorm: 0.092305266149 xtb: 6.6.1 (8d0f1dd)
N           -1.47864977621779        2.77790904019466        2.21589252421951
C           -1.57080855715858        2.18571647732457        1.13100180664316
C           -2.76043340379262        2.07516819770467        0.24107285783885
C           -3.32215310861240        0.65795623063933        0.32349142423198
C           -4.30773046489088        0.25765783329144       -0.58219226987510
C           -4.84977209077900       -1.01252217951849       -0.54059989615559
O           -5.81035113641511       -1.48027626045315       -1.37344264130758
C           -6.39309733911647       -0.60310834752174       -2.30606145985737
C           -4.39451586453239       -1.93568178362419        0.43512898870517
O           -4.97675550268757       -3.15476560367362        0.39630279828026
C           -4.64897579920733       -4.09331456819414        1.39488453822190
C           -3.41974594008285       -1.53252643870185        1.32830877347869
C           -2.88839575737908       -0.24855070688647        1.27200283070614
C           -2.23798298831693        2.29565238632915       -1.20092452791639
C           -1.28427404515828        1.14588100420636       -1.70310424541302
C            0.00791398358856        1.08373707744956       -0.95455777133732
N            0.62831159694781       -0.04479070691362       -0.58062159574841
C            2.00728562231494       -0.03284081665460       -0.16636718790089
C            2.93493665935489       -0.55572080930358       -1.27756783092048
C            4.36432203770601       -0.44377529381008       -0.83421272691417
C            5.07813799214040        0.71970595829884       -1.04397077314777
C            6.38953225560102        0.83333856179348       -0.60506332011692
C            7.00527647499565       -0.21354331081000        0.05929316958664
O            8.27223494208941       -0.21072899125344        0.52697537204786
C            9.07098523950225        0.93099694859283        0.32101273538668
C            6.27856318671263       -1.40948443351975        0.28478245421399
O            6.95839504911326       -2.38320764092082        0.93423523545003
C            6.32896028164834       -3.61936648073561        1.16130467978918
C            4.97200765143562       -1.50325005559095       -0.15798554155130
C           -0.04921625758646       -1.31316365872838       -0.60413826193371
C           -3.88675002869544        3.08493332072628        0.60486957721186
C           -4.49306674077161        2.77048983490116        1.96835651564641
C           -3.42039911505292        4.53761948091289        0.57252848479774
H           -4.66630493838853        0.95812030221863       -1.31982997514257
H           -6.85195084389827        0.26059022567528       -1.81462101825771
H           -7.16565505230911       -1.18353854207277       -2.80678811991872
H           -5.66460006673733       -0.25893360910740       -3.04775399552012
H           -4.87074571820760       -3.71049785994504        2.39596845048001
H           -5.27362113320892       -4.96125894113871        1.19407008128073
H           -3.59573489460002       -4.38697087927277        1.34157100144082
H           -3.06577000563105       -2.20642841984868        2.09156940089927
H           -2.15068796441101        0.03763383779606        2.00607093141052
H           -3.05977813770695        2.42558994405976       -1.87352434819691
H           -1.66337003807316        3.22545085682421       -1.22725224154857
H           -1.80237446221740        0.19567847095796       -1.64988095008763
H           -1.01794321200468        1.35835429996519       -2.72555514888363
H           -0.69340073111777        1.66856393230163        0.61485367398851
H            0.64526808657838        1.96399505854519       -0.99002237097672
H            2.12595260357576       -0.64665257929778        0.72795140481819
H            2.30566647831444        0.98723680473719        0.08119461161643
H            2.77478575763053        0.03504977749215       -2.17754420342942
H            2.68570360309193       -1.59508902085521       -1.49878099221778
H            4.62374147217541        1.54730525186996       -1.56663754734902
H            6.92494009936348        1.74903716899054       -0.79498330050752
H            8.64931123750880        1.81139383903983        0.81675557653554
H            9.20381717348542        1.14105452966698       -0.74477433333334
H           10.03631903933233        0.69536682149528        0.76428897995294
H            7.07046864802800       -4.23716278597676        1.66484522729501
H            5.45157589455047       -3.51285215139788        1.80773390291998
H            6.03650307678404       -4.10072959686298        0.22287874730959
H            4.41190404247528       -2.41221509865858        0.00121578536578
H           -0.20600298695176       -1.66031229423868       -1.62364059210721
H           -1.01744749262727       -1.24263479717814       -0.10124084629768
H            0.56210589042905       -2.04724536597395       -0.07938652745626
H           -4.66699108704495        2.95997847107848       -0.15356397785653
H           -3.75036892182262        2.90047503899085        2.74929606825133
H           -4.86643733693889        1.75032837209016        2.00301576673782
H           -5.32224781518690        3.44637740639395        2.16149498480727
H           -2.62694142500540        4.70109191923754        1.29546481538604
H           -3.07648799600670        4.83187467560245       -0.41351849986300
H           -4.25342682974480        5.18411921103535        0.83789297917461
H           -0.59669463459927        2.80937262336652        2.71009883455804
72
 energy: -103.315243306307 gnorm: 0.033258542154 xtb: 6.6.1 (8d0f1dd)
N           -1.49325629820315        2.80603380174354        2.22482530583024
C           -1.56835893452983        2.17596338483232        1.14562410503835
C           -2.75778202097703        2.07204740765070        0.24471227675117
C           -3.32660976590192        0.66070989131556        0.32917082317056
C           -4.31017452448588        0.25794396115450       -0.57680012804369
C           -4.84972848083626       -1.01318833718571       -0.53799338935540
O           -5.81344836677775       -1.48317305818393       -1.37394253029297
C           -6.39197978714823       -0.60357280910566       -2.30561640225962
C           -4.39544731967116       -1.93517887675545        0.43519625713600
O           -4.98046773082451       -3.15992244861896        0.39635680856479
C           -4.64888545304611       -4.09438048179929        1.39440016024829
C           -3.42357007783930       -1.53152137081154        1.33049139876878
C           -2.89541572757546       -0.24579635705203        1.27758794975340
C           -2.21747095499925        2.29610603596669       -1.19215797881324
C           -1.28163649721338        1.16322091441844       -1.70642600915096
C            0.00567782081632        1.10698247594699       -0.94972624067103
N            0.63078574992817       -0.05227132491168       -0.56891752941658
C            2.00741226497304       -0.03890671298214       -0.16993601580017
C            2.94134138219898       -0.55979627085100       -1.28099428686427
C            4.36896463675139       -0.44846664527742       -0.84306178099162
C            5.08186955441599        0.71740390456018       -1.04772163703832
C            6.39113123249468        0.83322507335330       -0.60405033974144
C            7.00615033891349       -0.21382660884197        0.06026593351940
O            8.28027715507774       -0.21210265543467        0.53034552070016
C            9.07238004413806        0.93107222571223        0.32150712010879
C            6.28026243952276       -1.40831546983196        0.28464815842196
O            6.96295412655756       -2.38525755090683        0.93780883235619
C            6.32920455337917       -3.61897618731624        1.16191508928689
C            4.97652396239368       -1.50452739434456       -0.16242048622963
C           -0.04761613186080       -1.31866838550537       -0.60101483929483
C           -3.88903297661003        3.08164564283753        0.59702964216366
C           -4.49530720201402        2.77081441652352        1.96394054248648
C           -3.42280109689473        4.53544662905061        0.56981989106959
H           -4.66361252336966        0.95633723432381       -1.31774856137382
H           -6.84961801497215        0.26119851027763       -1.81404604130957
H           -7.16536092244766       -1.18176588535617       -2.80867892680577
H           -5.66204972774722       -0.25820262504048       -3.04571237502906
H           -4.86970858976126       -3.70960663556713        2.39525774692302
H           -5.27249222922910       -4.96419482255501        1.19600867314675
H           -3.59440945760781       -4.38516239678313        1.34119441984194
H           -3.06551684946250       -2.20823554785227        2.09015379437129
H           -2.15093339434128        0.03921124141360        2.00464959990487
H           -3.05141514871762        2.40502803741567       -1.87754865055149
H           -1.65083071254572        3.22963463430054       -1.21951286510759
H           -1.80599568207644        0.21271158892772       -1.64887562072048
H           -1.05736892785790        1.37703274269244       -2.75391987986245
H           -0.69528659613554        1.66298486804823        0.64948346288924
H            0.65406975802255        1.97025258677548       -1.02435904295054
H            2.13211610848962       -0.65355766016341        0.72650023698145
H            2.29887729864565        0.98390063158670        0.07913448347510
H            2.77307163494153        0.03618338809973       -2.17833404954047
H            2.68840235997285       -1.59788439850695       -1.50171529053732
H            4.62499724285275        1.54631687960882       -1.56719850101002
H            6.92644620659712        1.75012659336075       -0.79178387208060
H            8.64851928709046        1.81131510449002        0.81630210634279
H            9.20293639322263        1.14143790745466       -0.74510183908993
H           10.03910874803298        0.69869663683371        0.76438677074409
H            7.06892558933223       -4.23904487595800        1.66583558753219
H            5.45000210693288       -3.51149933259147        1.80633296282774
H            6.03521269342712       -4.09910951205979        0.22257400823831
H            4.41377743529228       -2.41110613305719       -0.00029119440160
H           -0.20860185602993       -1.66557280873949       -1.62594156584053
H           -1.01704039850048       -1.24525220285825       -0.10029744258641
H            0.55789164990707       -2.05654479382160       -0.07732980465082
H           -4.67374657741752        2.96242816434947       -0.15920339039125
H           -3.74649915419014        2.89917408210269        2.73939505932774
H           -4.86747437518514        1.74993780260265        2.00156541102942
H           -5.32434005743358        3.44721486070592        2.16195983322324
H           -2.62668508525691        4.69072792408740        1.29197076565599
H           -3.07292930642638        4.82791095605033       -0.41630814813262
H           -4.25448643714271        5.18520404503955        0.83612672582062
H           -0.60702996747726        2.80866755416968        2.71977614392385
72
 energy: -103.315751188540 gnorm: 0.020453595666 xtb: 6.6.1 (8d0f1dd)
N           -1.48226184171096        2.79808110532000        2.21437840827709
C           -1.55570548797657        2.16744879767321        1.12795084122543
C           -2.75857927275514        2.07202615122769        0.23844146249873
C           -3.32184438381551        0.66078455324781        0.32130473554996
C           -4.30769400937085        0.25785509919337       -0.58152228946506
C           -4.84601950086978       -1.01302538142513       -0.54067635207621
O           -5.81475919655013       -1.48422433886758       -1.37573629580241
C           -6.39371817007620       -0.60461873388056       -2.30585306917504
C           -4.39164164168668       -1.93290856264538        0.43152631486278
O           -4.98123986431425       -3.16047612008963        0.39573757094576
C           -4.64980078786005       -4.09250590999599        1.39352588060442
C           -3.41906535159935       -1.53084065555249        1.32584546676401
C           -2.88883442528767       -0.24646420544182        1.26913103586959
C           -2.22050856817835        2.29137336224336       -1.20132799945349
C           -1.28248307485692        1.15888653443493       -1.69479319891236
C           -0.00075782815563        1.11418077203295       -0.93520663238941
N            0.63278491756632       -0.05913008778742       -0.55783734333739
C            2.00512248161406       -0.03453266102599       -0.16483582106448
C            2.93969268160464       -0.55724292664415       -1.27646760334518
C            4.36283334667611       -0.44518826156234       -0.83597201807778
C            5.07672994406495        0.72017934099651       -1.04301882843165
C            6.38718295950806        0.83456160718030       -0.60448882176230
C            7.00038478526460       -0.21317182563961        0.05864667530325
O            8.27968229475554       -0.21320471441527        0.52912979279609
C            9.06966280910737        0.92925459943019        0.32074426008717
C            6.27508526537591       -1.40556810722251        0.28508436172690
O            6.96243143375500       -2.38556090984671        0.93683947208254
C            6.32962004954538       -3.61883194926161        1.16121400216370
C            4.97074449266361       -1.50141830092674       -0.15707575389838
C           -0.04492811671950       -1.32118999189768       -0.60170773676746
C           -3.88358605530999        3.08303619062750        0.60332031401304
C           -4.49286471460241        2.77098512628081        1.97087773585794
C           -3.42257688386796        4.53998326065161        0.57577514397444
H           -4.66453473586240        0.95693516561559       -1.32008941190710
H           -6.85196850732162        0.26043092108188       -1.81456534102320
H           -7.16765951278946       -1.18389994374938       -2.80717247373764
H           -5.66606375912802       -0.25880678930281       -3.04828430297457
H           -4.87067159984661       -3.70863455133304        2.39510676143460
H           -5.27480690975764       -4.96137417262301        1.19464060727323
H           -3.59577964547102       -4.38620983019273        1.34146338237046
H           -3.06432884708558       -2.20582679974655        2.08920598425633
H           -2.14852979737560        0.04054515410222        1.99954765317052
H           -3.06671143320828        2.40781318520436       -1.88557361145958
H           -1.66204195122595        3.22723997951899       -1.22814516475613
H           -1.79842939665485        0.19849264298529       -1.64763594154490
H           -1.03919002708133        1.35979304675908       -2.74669085078433
H           -0.69465518747536        1.67433500750461        0.62129936201226
H            0.64429429370574        1.97296844693331       -0.99298977380327
H            2.13187807734528       -0.64746265401118        0.73452400385225
H            2.29699561543573        0.98962687395036        0.08293368691377
H            2.77103668621895        0.03872997363524       -2.17509340289394
H            2.68358781875442       -1.59447083902815       -1.49541847798073
H            4.61999326367791        1.54794780031670       -1.56498557047565
H            6.92433081333448        1.74988430082110       -0.79599370668591
H            8.64801681215508        1.81045465480702        0.81635061590385
H            9.20226995026838        1.14108750828960       -0.74568138096974
H           10.03590507690207        0.69487586526760        0.76404585819715
H            7.07156345613864       -4.23728156978409        1.66395816654798
H            5.45133622778917       -3.51347792303399        1.80758647960129
H            6.03491537496472       -4.10069385991518        0.22249858230746
H            4.40785891761005       -2.40835038417179        0.00339974663998
H           -0.20502341225323       -1.66474841939004       -1.63096840038065
H           -1.01634587698646       -1.24744244869601       -0.10408183157074
H            0.56154086433689       -2.05626955479531       -0.07863167828306
H           -4.67012237663055        2.96358662142400       -0.15066754173355
H           -3.74875900446772        2.90027872795016        2.75057071168993
H           -4.86478416762791        1.74970227814893        2.00660584944454
H           -5.32378979561619        3.44645431119123        2.16457248121439
H           -2.62599620520532        4.70116101695523        1.29625988833656
H           -3.07539104637169        4.83327309677254       -0.41195815213401
H           -4.25699453257747        5.18610051329784        0.84172866142605
H           -0.57916537097499        2.79236095398531        2.68494177349988
72
 energy: -103.316262468818 gnorm: 0.011579776166 xtb: 6.6.1 (8d0f1dd)
N           -1.50372172403325        2.79558680558350        2.22868748492293
C           -1.56149978078873        2.17436595670213        1.13707406383392
C           -2.76022296655322        2.07222936573901        0.24275894485638
C           -3.32249408622292        0.66003535962874        0.32545662511105
C           -4.30793831724729        0.25802842787799       -0.57861083401895
C           -4.84722819310173       -1.01221974138652       -0.53698297088893
O           -5.81409807188863       -1.48262250803961       -1.37412199408303
C           -6.39114177850740       -0.60311277143011       -2.30515731834766
C           -4.39375253012660       -1.93225254426649        0.43551156215865
O           -4.98094538720552       -3.16048688982526        0.39769557667032
C           -4.64859942248686       -4.09329989489648        1.39419972737312
C           -3.42174396540036       -1.53176872691564        1.33099804871121
C           -2.89136258509648       -0.24771883026968        1.27493583936901
C           -2.22154871063184        2.29366542137265       -1.19706558049612
C           -1.28442947530168        1.15805353568814       -1.69404402378396
C            0.00224574324462        1.10944887181498       -0.94611356048690
N            0.63453954921485       -0.05910667891739       -0.57107463231159
C            2.00600663731295       -0.03493487325441       -0.17358909740023
C            2.94290856450494       -0.55942396688415       -1.28215387463029
C            4.36556639867426       -0.44686585225928       -0.83795962552192
C            5.08030677921545        0.71811494179153       -1.04538472712095
C            6.39033486254482        0.83326866732837       -0.60563758238461
C            7.00252540857504       -0.21405839126515        0.05805201423951
O            8.28062195002942       -0.21191467513267        0.53011355526629
C            9.07066826334721        0.93044179906899        0.32177703560334
C            6.27808625817227       -1.40699199364060        0.28280463245194
O            6.96341524760033       -2.38637688446027        0.93661351715556
C            6.32932625754926       -3.61867140845027        1.16158678686126
C            4.97406170017625       -1.50391904212509       -0.16055155052286
C           -0.04879657378104       -1.31635712272994       -0.60334002516668
C           -3.88539207424796        3.08274983156168        0.60096046718730
C           -4.49524214953753        2.77039160403661        1.96711290029695
C           -3.42067315476503        4.53776577035011        0.57042049118463
H           -4.66493872862660        0.95762627796270       -1.31713041733054
H           -6.85074706536530        0.26172237013380       -1.81479734244413
H           -7.16409711547561       -1.18240689900882       -2.80783652751118
H           -5.66218478235478       -0.25777963732030       -3.04651295564197
H           -4.87021233819015       -3.71191792904345        2.39664909429526
H           -5.27228145900582       -4.96281635412519        1.19421717770304
H           -3.59445045733008       -4.38651403678892        1.34201943850724
H           -3.06745129819430       -2.20734020486672        2.09387667428590
H           -2.15348680623559        0.03844541754429        2.00848627114397
H           -3.06476758647413        2.42596896266615       -1.87711766442413
H           -1.65989394379131        3.22734243667184       -1.22011983535244
H           -1.80158406595274        0.19824217996524       -1.65225670105142
H           -1.02838902368232        1.35984759001669       -2.74004190990792
H           -0.69944381812737        1.67265970303802        0.63483994152679
H            0.65162921355266        1.96500078607813       -1.00262414720681
H            2.12975191038056       -0.64848411953416        0.72559759014841
H            2.30390450034007        0.98680939826951        0.07578559244492
H            2.77741508790149        0.03481051263913       -2.18193286938457
H            2.68729466280068       -1.59659968662658       -1.50202620264801
H            4.62483822655569        1.54561204632466       -1.56859824899440
H            6.92658626655982        1.74944866334317       -0.79440513385057
H            8.64937305847883        1.81226436284713        0.81663220006786
H            9.20462334682280        1.14173681588982       -0.74454036836475
H           10.03710229489288        0.69697618077661        0.76528009434959
H            7.06958860712546       -4.23756706525104        1.66614027788733
H            5.45043354680611       -3.51195409136264        1.80683895523950
H            6.03624000460982       -4.10124034925277        0.22287880224691
H            4.41307315051064       -2.41255861663784       -0.00235366047421
H           -0.21151706144441       -1.66547292481974       -1.62859581489864
H           -1.01816435514618       -1.23837456328836       -0.10219305112189
H            0.55932051064642       -2.04844553767439       -0.07815234054112
H           -4.66799846270251        2.95963890169020       -0.15626810670312
H           -3.75109241366647        2.89969139274244        2.74662995763544
H           -4.86852988274354        1.74967695800541        2.00138621433427
H           -5.32471355581683        3.44728055661029        2.15903904615104
H           -2.62582479634713        4.69889840059848        1.29259873209989
H           -3.07323299049546        4.82959396121944       -0.41731070031496
H           -4.25416372489444        5.18472377403230        0.83412453670751
H           -0.60492289357845        2.80107196729660        2.70638847694146
72
 energy: -103.316364633433 gnorm: 0.009384153072 xtb: 6.6.1 (8d0f1dd)
N           -1.49153509858398        2.80216767643950        2.22290077109987
C           -1.55646200538538        2.17767410336771        1.13632089039056
C           -2.75827125576761        2.07319628953539        0.24456938707347
C           -3.32449532213907        0.66145605129073        0.32633840483947
C           -4.30927883075884        0.25893520816191       -0.57908811272939
C           -4.84798845136098       -1.01204213827481       -0.53849617584921
O           -5.81396914767742       -1.48265956837309       -1.37547905663905
C           -6.39302781898994       -0.60380919760556       -2.30571103596823
C           -4.39356891852641       -1.93253038931286        0.43332622081798
O           -4.98006735029212       -3.16017444615965        0.39561328399719
C           -4.64911221012671       -4.09221508529101        1.39339971724806
C           -3.42068484337756       -1.53206238547214        1.32820963216145
C           -2.89193103934010       -0.24721032801253        1.27389406196331
C           -2.22069000615129        2.29204804431408       -1.19653580853293
C           -1.28569132470339        1.15871122684003       -1.70090110461254
C            0.00345422959199        1.10575550936910       -0.95544397003807
N            0.63251283028900       -0.05699909078290       -0.57238029432856
C            2.00297645599454       -0.03449534902762       -0.16702978159321
C            2.93979386488000       -0.55740071630939       -1.27622250243783
C            4.36490204198330       -0.44604708903999       -0.83652603299695
C            5.07975134697819        0.71872697114658       -1.04425398811119
C            6.38980534736614        0.83407108870998       -0.60378886776554
C            7.00234447545974       -0.21355156196202        0.05954651367111
O            8.27982418902442       -0.21152330441155        0.52996060661910
C            9.07048156875594        0.93027492352330        0.32067928004885
C            6.27794907044374       -1.40651277243180        0.28442579981822
O            6.96232960020094       -2.38568381308950        0.93767625150879
C            6.32878153524901       -3.61843813537264        1.16143676553606
C            4.97359377177662       -1.50319850828585       -0.15906508712652
C           -0.04731873619921       -1.31717341656215       -0.60176825589671
C           -3.88610693702037        3.08224480919869        0.60064670606500
C           -4.49283641611158        2.76997080356657        1.96752708530977
C           -3.42180997249781        4.53663274233008        0.57320081484545
H           -4.66470038780053        0.95764188054610       -1.31929461089992
H           -6.85172058416812        0.26074970012105       -1.81429346150879
H           -7.16677090336292       -1.18288562103295       -2.80756292584689
H           -5.66487023172709       -0.25840098247603       -3.04767143501187
H           -4.87012158535794       -3.70843911476318        2.39503139641042
H           -5.27342032824823       -4.96195159683246        1.19565587630291
H           -3.59513842515935       -4.38589002341050        1.34149495249927
H           -3.06303430567110       -2.20877778327983        2.08801784835407
H           -2.14866202772179        0.03725515731055        2.00276813923639
H           -3.05923073107636        2.41324856841344       -1.87835281785047
H           -1.65823610209112        3.22633431467548       -1.22622849622365
H           -1.80705506355179        0.20376861624462       -1.65191564072378
H           -1.04355538971501        1.36667907652154       -2.74763816412820
H           -0.69673352508180        1.66333920615484        0.63672369414405
H            0.65298725332490        1.96339825973084       -1.01390394115755
H            2.12747131804511       -0.65012777155060        0.73072936436001
H            2.29980961159098        0.98642292428441        0.08455639855633
H            2.77145346117520        0.03743802342248       -2.17459444797923
H            2.68514581260721       -1.59479221610100       -1.49726067930607
H            4.62330317715900        1.54740717301016       -1.56470474169396
H            6.92546323986667        1.75052320963643       -0.79184595728535
H            8.64913298138512        1.81168175823310        0.81606101814940
H            9.20232221536057        1.14145849354395       -0.74587378500236
H           10.03786435395115        0.69742601418346        0.76272291983322
H            7.06922710919746       -4.23855880150200        1.66438192353174
H            5.45037500202983       -3.51251755459552        1.80730311723033
H            6.03491412000512       -4.09909273959726        0.22216311921119
H            4.41153420080203       -2.41043443002566        0.00287653397222
H           -0.20566144379618       -1.66624123226371       -1.62628221617280
H           -1.01775733512591       -1.24603598429827       -0.10218287416914
H            0.56052855631240       -2.05145917728003       -0.07732214924765
H           -4.67028923905955        2.96103520502143       -0.15566222886810
H           -3.74530716418957        2.89934653019130        2.74350047173079
H           -4.86524665531280        1.74925152458721        2.00320670330601
H           -5.32155504204167        3.44649575867681        2.16355469361922
H           -2.62642093696077        4.69363902023671        1.29540831779893
H           -3.07520387616596        4.83097023824593       -0.41357322484146
H           -4.25425559344397        5.18358487836482        0.84037542681023
H           -0.59337174338704        2.80603250879233        2.70221671611081
72
 energy: -103.316470211012 gnorm: 0.005375384049 xtb: 6.6.1 (8d0f1dd)
N           -1.49436801035208        2.79721529513325        2.22390009187897
C           -1.55872263756505        2.17255238285186        1.13699233394433
C           -2.76000767599095        2.07270119466180        0.24339708625611
C           -3.32457677373646        0.66080771215910        0.32481566722183
C           -4.30890337880871        0.25747068253245       -0.58016343661170
C           -4.84749211091330       -1.01346060505322       -0.53865697973665
O           -5.81407062661113       -1.48398900130596       -1.37540287984935
C           -6.39198293968619       -0.60439039795166       -2.30553585927453
C           -4.39371786300370       -1.93298444160835        0.43402365415872
O           -4.98059605194355       -3.16101384551900        0.39683000989394
C           -4.64930396000330       -4.09332743021608        1.39390278622158
C           -3.42177000273189       -1.53124711838099        1.32951994694141
C           -2.89260850806079       -0.24651029816980        1.27361089269534
C           -2.21981854115108        2.29273233212877       -1.19659603041584
C           -1.28246858945309        1.16063420476278       -1.69652601951260
C            0.00353037472079        1.10924559927215       -0.94597385985553
N            0.63369864715492       -0.05636781820872       -0.56650299602255
C            2.00575776423396       -0.03510131652552       -0.16854014149446
C            2.94078486050985       -0.55847221862152       -1.28001590869644