72
 energy: -103.311434553336 gnorm: 0.082675251654 xtb: 6.6.1 (8d0f1dd)
N           -1.48079549009683        2.77327010741681        2.22645792343917
C           -1.55750152482484        2.17976246581935        1.14811198009922
C           -2.74342980273397        2.06774044531761        0.24121736885241
C           -3.30777599441719        0.65548568504336        0.32680629396750
C           -4.28577356528243        0.24681080269570       -0.57577915613923
C           -4.82964045959356       -1.02830735777609       -0.52866038282802
O           -5.79127548270936       -1.49150158256386       -1.36467481278891
C           -6.37547942558046       -0.61149056533635       -2.29869158988780
C           -4.37315360190348       -1.95634235039446        0.45575532726568
O           -4.94669598904145       -3.19731053336367        0.44496223011728
C           -4.69026680463839       -4.19499908327002        1.44085129601516
C           -3.40434895377231       -1.53378778401886        1.34336769195866
C           -2.87793306146350       -0.24774097464179        1.28029881999423
C           -2.18854082213398        2.31925164850454       -1.18439792706352
C           -1.26408956575161        1.18557076443857       -1.66265453230546
C            0.00999846197428        1.12264565621108       -0.89906520664067
N            0.62963713132148       -0.03329456414429       -0.57608067177318
C            1.99976323862102       -0.02952808795396       -0.16015619861397
C            2.92845169303120       -0.53540080511528       -1.28265250136408
C            4.35680155728066       -0.43128757967156       -0.83565280366471
C            5.07256358413112        0.73159130803955       -1.03886931971895
C            6.38495144645171        0.84018633666730       -0.60119635946499
C            6.99711655636840       -0.21260349041117        0.05721940325064
O            8.26822728781177       -0.21806908822147        0.52560173336592
C            9.06845922710877        0.92205549966030        0.32130060648498
C            6.26521358621324       -1.40736470741072        0.27735996372852
O            6.94418328691735       -2.38790111219278        0.92436940737864
C            6.30821164959118       -3.62088762339100        1.14616258542939
C            4.96015759006606       -1.49501674356610       -0.16538140702786
C           -0.05967633729039       -1.29356520694472       -0.63519008558493
C           -3.87048771460591        3.08738078540935        0.58054100654849
C           -4.49621285945821        2.78278994573819        1.93942793846983
C           -3.39910059848953        4.53873940362471        0.54309658627296
H           -4.64296283752821        0.94440555904191       -1.31808659332095
H           -6.83312242049133        0.25432492490413       -1.80987583371987
H           -7.14980507983478       -1.19013570957616       -2.79921561721430
H           -5.64758966351341       -0.26846167922360       -3.04282743035236
H           -4.91400551408787       -3.81595573810665        2.44353753178598
H           -5.32369763176266       -5.02159122268771        1.20903391117058
H           -3.63858614543089       -4.50099054270797        1.39801629988979
H           -3.05252619608085       -2.20429389780693        2.10880544906075
H           -2.14256866086793        0.04026986272132        2.01458866887232
H           -3.01822561274595        2.40335524790253       -1.88591147303861
H           -1.64241420047717        3.26315587268320       -1.19814977432740
H           -1.80767963283734        0.24571750654350       -1.62896358817193
H           -1.00169181444856        1.39197522305778       -2.71005814496142
H           -0.67735162434728        1.66388799874973        0.63788174146786
H            0.64049804248733        1.99263451042454       -0.93274626334312
H            2.10681535246675       -0.66710543528749        0.72063613877260
H            2.30240564020597        0.98685213237837        0.11099131742689
H            2.76525679614725        0.07377654317002       -2.17104894570489
H            2.67669822729900       -1.57037961167943       -1.51842836837834
H            4.62157219108985        1.56482500031941       -1.55831472234525
H            6.92394877265387        1.75512870501497       -0.78699407552838
H            8.65077911548630        1.80203045488113        0.82068306378389
H            9.20083433477133        1.13482779672976       -0.74400504892359
H           10.03340200542845        0.68062016887238        0.76365447979453
H            7.04783938919981       -4.24324969913914        1.64718093363339
H            5.43147142960623       -3.51243442232782        1.79361652788575
H            6.01273277071395       -4.09700886985393        0.20614413108048
H            4.39570300146091       -2.40152127094036       -0.01008086921584
H           -0.22783309891649       -1.60626273831686       -1.66628827537141
H           -1.02374042565820       -1.23344626671792       -0.12118293151147
H            0.55053746581695       -2.04558498771736       -0.13972462971868
H           -4.64204748919727        2.95997339731013       -0.18539499968515
H           -3.76352893692632        2.91644593888112        2.72784966384653
H           -4.87348451951240        1.76485422056702        1.97559764789355
H           -5.32584349147087        3.46306763132818        2.11810974377881
H           -2.61040318665428        4.70588717492969        1.26828322222974
H           -3.04558305426199        4.82819415090281       -0.44428268151534
H           -4.23161274206188        5.18919882916300        0.79839516491729
H           -0.60727898366608        2.80924869863562        2.73668422685470
72
 energy: -103.313999992568 gnorm: 0.032017836752 xtb: 6.6.1 (8d0f1dd)
N           -1.49815032979927        2.80531372254871        2.24107801034179
C           -1.56338213575497        2.17184925028006        1.16480886862585
C           -2.74655037027620        2.06791946238538        0.24871122887650
C           -3.31145067886035        0.65447237872559        0.33340901746432
C           -4.29093958390861        0.23885310693157       -0.56905063725527
C           -4.83250440042100       -1.03473369767452       -0.52353376045171
O           -5.79621243829269       -1.49807443860136       -1.36384873486811
C           -6.37276674667026       -0.61453998313085       -2.29615125612557
C           -4.38012490500955       -1.95616433991900        0.45761574912492
O           -4.95991265465596       -3.19201208441040        0.43176045560454
C           -4.67715317952960       -4.16300569404009        1.43152989472965
C           -3.40993902008469       -1.53674444435594        1.34787964534866
C           -2.88315226147995       -0.24946519710466        1.28751710064181
C           -2.19158895638729        2.31209580966074       -1.18020805469557
C           -1.25866232957358        1.19576048911741       -1.68105727386459
C            0.01164287628540        1.13581573777327       -0.90395834224083
N            0.63386724972474       -0.04234694025124       -0.56918556623487
C            2.00342323926526       -0.03984014879933       -0.16189393650485
C            2.93638043649167       -0.53999859323608       -1.28471070380810
C            4.36307620273308       -0.43563957040033       -0.84590974444595
C            5.07821500740636        0.72955907464643       -1.04363821814067
C            6.38798351257955        0.83969319593370       -0.59974349588583
C            6.99899971766485       -0.21323367459122        0.05865943463419
O            8.27508433108101       -0.21917686480342        0.52853111709037
C            9.07006755058775        0.92193578105796        0.32209794749185
C            6.26881238164464       -1.40622516625672        0.27783520495906
O            6.94890418296133       -2.38920379475942        0.92772625871478
C            6.30881982100420       -3.62019717294018        1.14688535382013
C            4.96578073154618       -1.49663297626874       -0.17001394407046
C           -0.05613179877348       -1.30024256342283       -0.63241803274627
C           -3.87658683888432        3.08504712818370        0.57825722077120
C           -4.50084169441386        2.78473285208846        1.93897704124157
C           -3.40331553449971        4.53653341109273        0.54292601890905
H           -4.64390083386788        0.93276758240317       -1.31549494422110
H           -6.82837887340595        0.25202189243840       -1.80586167885641
H           -7.14815028975202       -1.19003329166724       -2.79936549901330
H           -5.64303141451586       -0.27079230389878       -3.03766905727377
H           -4.90802570523159       -3.79217891812872        2.43521364135551
H           -5.31996224260466       -5.00219890883182        1.19967695992169
H           -3.63026101507527       -4.48324410803906        1.39370325323981
H           -3.05321456911982       -2.21089697308318        2.11061729691902
H           -2.14168205520166        0.03914971582950        2.01583433620178
H           -3.02335318160958        2.40571614455199       -1.87989153585140
H           -1.64293491185685        3.25490710848699       -1.19147833239435
H           -1.79606275710424        0.25094294139854       -1.63497539948392
H           -1.02759857866133        1.40042896816319       -2.73786637395492
H           -0.68731929492214        1.65651121674778        0.67002995018412
H            0.65877067200871        1.99612051531119       -0.96959319228432
H            2.12221752568613       -0.67488247537880        0.72189839916007
H            2.29780094500750        0.97753107297447        0.10899545095102
H            2.76490903033847        0.07321362488758       -2.17006007463455
H            2.68112359705759       -1.57340691251210       -1.52219336215445
H            4.62394952230344        1.56338246356179       -1.55839043863490
H            6.92629791142411        1.75583402579469       -0.78292821662151
H            8.65010760209046        1.80205814509200        0.82026996032569
H            9.20020672152594        1.13521366305015       -0.74397186906076
H           10.03654973502046        0.68453449486430        0.76338291489158
H            7.04585547228795       -4.24565642790402        1.64819343671264
H            5.43027300918764       -3.51105005507729        1.79214273743854
H            6.01187332337455       -4.09536201423940        0.20598076710460
H            4.39861206382119       -2.40111994876633       -0.01191106834256
H           -0.22875978340359       -1.61370424073432       -1.66667973668877
H           -1.02123381882296       -1.23530936498147       -0.12148095641124
H            0.54809478834503       -2.05715513459711       -0.13669087810245
H           -4.65041116354175        2.96218839220407       -0.18813808044212
H           -3.76038749956254        2.91562622945186        2.72148909244811
H           -4.87555878489666        1.76506113188657        1.97615026076529
H           -5.33033137340916        3.46486560940244        2.12172690250847
H           -2.61045159370165        4.69509525701450        1.26736465261995
H           -3.04628274742401        4.82240424374937       -0.44369266753744
H           -4.23407001137898        5.19116590943191        0.79853755231373
H           -0.61850098895492        2.81126374490494        2.74815673542045
72
 energy: -103.314917716607 gnorm: 0.018433878989 xtb: 6.6.1 (8d0f1dd)
N           -1.48522814149765        2.80026306209420        2.23303931869550
C           -1.54886973953862        2.16403136119724        1.14912710719939
C           -2.74190961205851        2.07113236647997        0.24312750988661
C           -3.30404604952281        0.65507909690102        0.32559605091868
C           -4.28753548192579        0.23575151878488       -0.57265012324183
C           -4.82672930868103       -1.03911211741822       -0.52338116796964
O           -5.79588591695971       -1.49867046505393       -1.36514477598173
C           -6.37288203458084       -0.61425528224610       -2.29560162579982
C           -4.37600482493967       -1.96101881169439        0.45753423587065
O           -4.96113010873819       -3.19807894206894        0.43626573511299
C           -4.68000297607475       -4.16716280158521        1.43186093946530
C           -3.40367587916189       -1.53737870122781        1.34440553846664
C           -2.87684011314445       -0.24971550786952        1.28017938397981
C           -2.19166928873784        2.31706432829483       -1.18686584291045
C           -1.26089906249536        1.19475817340259       -1.67387271701429
C            0.00306205589426        1.14321466508755       -0.89027956122420
N            0.63160820681159       -0.04343814744980       -0.55837622164846
C            1.99923128930209       -0.03320803460334       -0.15683206301644
C            2.93202219838542       -0.53550664218130       -1.27961815991263
C            4.35515553652618       -0.43154816545258       -0.83950739027913
C            5.07197496404927        0.73284762072427       -1.03941924086769
C            6.38294847221732        0.84091332004720       -0.60023920405154
C            6.99264276440654       -0.21261948099087        0.05699715056342
O            8.27244104475924       -0.22003471697224        0.52643394294349
C            9.06697022790392        0.91986932747047        0.32122339917969
C            6.26311155398617       -1.40342744603965        0.27833955610189
O            6.94681002168728       -2.38874229810261        0.92605707591575
C            6.30851138606443       -3.61993638183540        1.14615037499327
C            4.95851674070732       -1.49318640290777       -0.16480378266486
C           -0.05651972691048       -1.29839637219734       -0.63293957840328
C           -3.86846550402309        3.08625814027437        0.57972037513112
C           -4.49613533152201        2.78439377933230        1.93928420472419
C           -3.40007942763549        4.54073255247882        0.54358032818703
H           -4.64258321078081        0.93268925558035       -1.31623655975913
H           -6.83053220334336        0.25282581590823       -1.80705103209169
H           -7.14917659264462       -1.19021229485307       -2.79760880925353
H           -5.64752128135450       -0.26894194136557       -3.04065300581088
H           -4.91561356030708       -3.81551210775371        2.44135268432170
H           -5.32872187341974       -5.01506423729110        1.19876043456709
H           -3.63930462286509       -4.50552959764612        1.40039031480804
H           -3.04752110143876       -2.20676284786581        2.11210617568364
H           -2.13899547186103        0.04295443592456        2.01061558283934
H           -3.02193187671211        2.40899964750353       -1.88900470616028
H           -1.64115864741770        3.26019502612375       -1.20019825050207
H           -1.79933122322398        0.24760538936157       -1.62545055030352
H           -1.01779480509929        1.39247854359976       -2.72665267355380
H           -0.67944554780737        1.66621907271153        0.65038161031857
H            0.64895576324471        2.00427647663923       -0.93934632595376
H            2.11774093190431       -0.66672045418414        0.72887538573755
H            2.29248710891186        0.98506265332991        0.11283840516241
H            2.76100867789819        0.07674493715893       -2.16683649599251
H            2.67366545212267       -1.56831586469523       -1.51611876720024
H            4.61764877251189        1.56485122826187       -1.55652959081987
H            6.92264909039036        1.75551833447689       -0.78750180578754
H            8.64921153374825        1.80107397851023        0.82011907135508
H            9.19915819336473        1.13479905451418       -0.74466381074830
H           10.03279495177041        0.68054046089498        0.76290508870300
H            7.04793321490522       -4.24364562021721        1.64621156017486
H            5.43092861924462       -3.51301582955118        1.79328914067196
H            6.01082432049562       -4.09692077077533        0.20586183463460
H            4.39122341870121       -2.39803592459096       -0.00802519912753
H           -0.22894134978696       -1.60717833917966       -1.67088127785136
H           -1.02284674192486       -1.23627042779971       -0.12356870327595
H            0.54941645361287       -2.05453135887251       -0.13989067975754
H           -4.64255675141327        2.96292049181297       -0.18677102184820
H           -3.75970181800711        2.91564557268852        2.72568577956244
H           -4.87020829176680        1.76383955299979        1.97493271025531
H           -5.32711832474194        3.46313328064590        2.11818353296159
H           -2.60766688479491        4.70402153449162        1.26820190323852
H           -3.04430000549600        4.82811920167466       -0.44293562297996
H           -4.23399514883752        5.19151560401182        0.79879310520686
H           -0.59070728718028        2.79287254436505        2.71894460179525
72
 energy: -103.315211819051 gnorm: 0.011422002711 xtb: 6.6.1 (8d0f1dd)
N           -1.50621033779653        2.79438543523341        2.24056634526958
C           -1.55429438637070        2.16895233592332        1.15219726260180
C           -2.74468926882196        2.07196124074042        0.24465122337652
C           -3.30831400188459        0.65819782211964        0.32810630575315
C           -4.29005179957237        0.24310061751352       -0.57278240313944
C           -4.82834024153911       -1.03261207581570       -0.52372759144100
O           -5.79594248123264       -1.49248139018834       -1.36728736706859
C           -6.37372506971250       -0.61084297702834       -2.29916556484927
C           -4.37664627539221       -1.95785910358381        0.45649477363969
O           -4.95687776137682       -3.19901320348081        0.44093871436400
C           -4.67836987021329       -4.16944837346172        1.43506968713139
C           -3.40756522022078       -1.53405252571931        1.34484866775070
C           -2.88251608696019       -0.24707461104927        1.28308640911835
C           -2.18973573597879        2.31710642576802       -1.18287440453072
C           -1.26292716288141        1.18989456438939       -1.66726002366588
C            0.00478094623543        1.13690410855090       -0.89505661271387
N            0.63454014580878       -0.04522976365871       -0.56923781758617
C            2.00192403287689       -0.03378512320809       -0.16683262961621
C            2.93698716941929       -0.53912949845618       -1.28653712797953
C            4.35917230144555       -0.43399978810240       -0.84067675739282
C            5.07661209187508        0.73029699757003       -1.04080357639128
C            6.38737181778728        0.83923870041615       -0.60111434771120
C            6.99641700026793       -0.21384662184888        0.05674532660581
O            8.27525711469296       -0.21871167107869        0.52802422582014
C            9.06922891410100        0.92144713194182        0.32262754839811
C            6.26773390747277       -1.40547295267436        0.27617577842722
O            6.94931892419145       -2.39031220019746        0.92614527578983
C            6.30940474840204       -3.62029164367505        1.14682473456774
C            4.96355797352087       -1.49632471098517       -0.16801698337922
C           -0.05761293506065       -1.29689721508384       -0.63451066403608
C           -3.87176832581775        3.08517726224672        0.58079077846822
C           -4.49979581148864        2.78398451600614        1.94035626445973
C           -3.40139469638114        4.53870327351532        0.54235276511776
H           -4.64342932943452        0.94370934736810       -1.31494072710424
H           -6.83357166854856        0.25610654929374       -1.81231592343245
H           -7.14867536844104       -1.18897152630554       -2.80116706917980
H           -5.64728884914220       -0.26644806043250       -3.04375354667576
H           -4.91109681663118       -3.81279810266668        2.44342346506759
H           -5.32083681336343       -5.02272881295247        1.20997508324908
H           -3.63503180488794       -4.49727073492303        1.39948765419684
H           -3.05340908557315       -2.20380748180312        2.11208212519407
H           -2.14658526536285        0.04320558204613        2.01646909416315
H           -3.01972029332147        2.40537115028913       -1.88474901765163
H           -1.64168364977774        3.26191555225008       -1.19540686429209
H           -1.80452194538692        0.24412740910269       -1.62787730003511
H           -1.00843482775765        1.39224930042295       -2.71500691759837
H           -0.68413181735658        1.66808801588870        0.65565304632725
H            0.65080798905620        1.99524408961930       -0.94305684385423
H            2.11394867593644       -0.66973653712433        0.71757955162840
H            2.30160808629135        0.98269175654406        0.10502814058085
H            2.76962922670359        0.07139749823859       -2.17554719727231
H            2.68014753676614       -1.57253377850995       -1.52302545962418
H            4.62376961227023        1.56185406150212       -1.56010793582272
H            6.92614342940167        1.75485637974675       -0.78592031901182
H            8.65154051061198        1.80315828099586        0.82077435869385
H            9.20258311669211        1.13568635484673       -0.74327525068866
H           10.03513278423685        0.68296470344608        0.76480321759782
H            7.04724687707352       -4.24418351391383        1.64888599126414
H            5.43111717173225       -3.51153047468745        1.79270518927821
H            6.01341769291934       -4.09778338344275        0.20639001484006
H            4.39861349302994       -2.40309051098731       -0.01411113233275
H           -0.23107164609559       -1.61218964650663       -1.66923870650890
H           -1.02237519565617       -1.23174052747657       -0.12191168372074
H            0.55020005270087       -2.04872766552271       -0.13822769323559
H           -4.64495500256082        2.95926886694180       -0.18594045754868
H           -3.76452392368154        2.91572299008993        2.72745979272699
H           -4.87682817221712        1.76467997289236        1.97693714031586
H           -5.32894230682399        3.46445265523422        2.11851163037574
H           -2.61040041616347        4.70293390614371        1.26771861859641
H           -3.04630258052859        4.82553791333279       -0.44470717112279
H           -4.23429211129349        5.18954018891891        0.79756829960777
H           -0.61485716965697        2.79993032068263        2.73063139341972
72
 energy: -103.315368020649 gnorm: 0.008513520412 xtb: 6.6.1 (8d0f1dd)
N           -1.49679777028214        2.79871776619882        2.23707951478169
C           -1.54930742885439        2.17096626463802        1.15270768552037
C           -2.74228114490738        2.06959929287844        0.24672989065896
C           -3.30714612586628        0.65602058841161        0.33025417474801
C           -4.28803704086612        0.24165113980368       -0.57212771599376
C           -4.82696388853294       -1.03313671875098       -0.52290881953745
O           -5.79431577841233       -1.49538110941387       -1.36470115745487
C           -6.37300803306922       -0.61435168584433       -2.29540304406339
C           -4.37489395736386       -1.95750805401929        0.45638236550303
O           -4.95549684729278       -3.19753126482406        0.43801577518434
C           -4.68147548695801       -4.16783292806018        1.43124153194795
C           -3.40526681834784       -1.53655488901523        1.34495467706373
C           -2.87931520269841       -0.25022320623879        1.28362443383617
C           -2.19038566479908        2.31446152675577       -1.18278455515164
C           -1.26199461471203        1.19159987505251       -1.67538859281931
C            0.00706415068047        1.13559095098495       -0.90460714152302
N            0.63327679832867       -0.04323695259482       -0.57013826986463
C            1.99884328824771       -0.03271400492624       -0.15940696979639
C            2.93281487129470       -0.53652011244747       -1.28026357484356
C            4.35682900371516       -0.43224829253859       -0.83841336780553
C            5.07436155477210        0.73180741038647       -1.03938843560379
C            6.38527524688742        0.84066542317953       -0.59978169030722
C            6.99428695335431       -0.21291667231724        0.05771102572883
O            8.27306131025700       -0.21850542153887        0.52746541762700
C            9.06744641632037        0.92100084661433        0.32097722905769
C            6.26538233506254       -1.40436953473571        0.27760430169566
O            6.94658586622471       -2.38933707893455        0.92682920100988
C            6.30738276211783       -3.61978850952588        1.14623969499108
C            4.96101117445396       -1.49466300249075       -0.16605293541666
C           -0.05780799178636       -1.29617572682906       -0.63355397255525
C           -3.86999105770397        3.08453698290330        0.57961902684579
C           -4.49687379941297        2.78350597768911        1.93926375045113
C           -3.39981426254706        4.53785537245086        0.54308203026358
H           -4.64042986536419        0.93971532009328       -1.31655531111924
H           -6.83025230640451        0.25229495913624       -1.80590580359355
H           -7.14902677907253       -1.19152978784698       -2.79689992658647
H           -5.64543138808743       -0.27068985094419       -3.03918357576568
H           -4.91356628000104       -3.80425363149752        2.43742841791300
H           -5.32566933453432       -5.01548588632251        1.20399425819167
H           -3.63708088243176       -4.49367094170023        1.39470433488042
H           -3.04982194707727       -2.20923280337011        2.10887577641353
H           -2.13893924514559        0.03724344002893        2.01378718869649
H           -3.02254676048631        2.40391822459072       -1.88185848753877
H           -1.64331462769256        3.25922547027863       -1.19564364602358
H           -1.80277238178367        0.24687070896582       -1.63559835842510
H           -1.01583028297093        1.39717620181333       -2.72569536087890
H           -0.68340303761324        1.65825850653381        0.65795478288386
H            0.65383712335159        1.99298682999316       -0.95578699496851
H            2.11165443618648       -0.66993372235264        0.72448442628518
H            2.29804699193831        0.98335364921899        0.11390976996334
H            2.76228988788145        0.07535325441037       -2.16746784506343
H            2.67613212537593       -1.56991220636900       -1.51732208718429
H            4.62066369588964        1.56473121933138       -1.55616046976406
H            6.92392817641505        1.75635078880507       -0.78417754849960
H            8.65010577159863        1.80236877910296        0.81984008138306
H            9.19885831473449        1.13510989649286       -0.74514701816256
H           10.03409022845904        0.68238134129984        0.76173935321431
H            7.04586063928763       -4.24450502175788        1.64643365621392
H            5.42978445979896       -3.51213187072631        1.79310439555848
H            6.01059569936439       -4.09547544773866        0.20530945081082
H            4.39470434486576       -2.39982978583812       -0.00852479525448
H           -0.22753118752341       -1.61167617027956       -1.66793372349552
H           -1.02393967408153       -1.23368470127843       -0.12338924083347
H            0.54831719070575       -2.04976921160500       -0.13673901592908
H           -4.64393077004963        2.96013360477689       -0.18675369923575
H           -3.75980375314889        2.91556931314524        2.72434522088061
H           -4.87265145626508        1.76400794171973        1.97558351904853
H           -5.32615661641199        3.46342965369919        2.11945204790306
H           -2.60882947674364        4.69967292472851        1.26859925994565
H           -3.04462239510044        4.82548423139971       -0.44362893257809
H           -4.23168199762039        5.18954245157381        0.79941317491650
H           -0.60561564239181        2.80473514680837        2.72846604718884
72
 energy: -103.315456026444 gnorm: 0.005448337670 xtb: 6.6.1 (8d0f1dd)
N           -1.49623031637176        2.79812060154530        2.23815943755737
C           -1.55136347490490        2.16818291474471        1.15428494532334
C           -2.74459166541010        2.07055263880401        0.24616700160514
C           -3.30874760092406        0.65581963286216        0.32795399794107
C           -4.29001408642668        0.23849334618455       -0.57325221464805
C           -4.82899042223950       -1.03597425921756       -0.52302181115934
O           -5.79656946827204       -1.49745835175075       -1.36572008587093
C           -6.37292620703066       -0.61442186297499       -2.29646890868980
C           -4.37760252580369       -1.95798621975938        0.45794182029631
O           -4.95758943286325       -3.19813791486496        0.43904441821606
C           -4.67966021883963       -4.16734639655185        1.43183076702841
C           -3.40738885167141       -1.53538995699392        1.34619217920600
C           -2.88104196794878       -0.24875336787217        1.28259191194805
C           -2.19108702394782        2.31604683489521       -1.18330984532404
C           -1.26031142705258        1.19364917523279       -1.67212563997070
C            0.00713997982082        1.13795425003818       -0.89747988481398
N            0.63408304216019       -0.04322197241682       -0.56464129473470
C            2.00139839789676       -0.03422209355522       -0.15997478068005
C            2.93412960626149       -0.53739627060440       -1.28291806988227