72
 energy: 0.000000000000 xtb: 6.6.1 (8d0f1dd)
N           -1.47310921155849        2.74401293103706        2.22063921685122
C           -1.55658879776851        2.16490285539332        1.13274273951491
C           -2.74549199786261        2.05621232186130        0.23826248438941
C           -3.31377553111525        0.64333411542669        0.32332512650568
C           -4.30230156009016        0.24487110156316       -0.58026161703006
C           -4.85238763031941       -1.02286490450319       -0.53363588718165
O           -5.81419972815119       -1.48606034185536       -1.36157882725342
C           -6.39655633239252       -0.60827000183299       -2.29568474302620
C           -4.39972501531283       -1.94646102182611        0.44396929121966
O           -4.98748311285188       -3.16145997157803        0.41085992006324
C           -4.66362127904578       -4.10093827755394        1.40909127743729
C           -3.42072513477031       -1.54561384810496        1.33436546260297
C           -2.88302799614223       -0.26315800396994        1.27400150770375
C           -2.19303798107274        2.30467000305896       -1.18742977106749
C           -1.26651538239283        1.17243369445008       -1.65249429687285
C            0.01082524939134        1.09745454476277       -0.89354803499847
N            0.61779393476578       -0.02034948052406       -0.57705522512502
C            2.00145210352228       -0.02376006389122       -0.15611399603240
C            2.92554934655222       -0.53865282675074       -1.27700088804721
C            4.35756843073516       -0.43050757231754       -0.83075544324989
C            5.07346135469827        0.73206409086248       -1.03980965825901
C            6.38627986649936        0.84224441421807       -0.60344822702769
C            7.00047264773336       -0.20824756335880        0.05722314418200
O            8.26703657141718       -0.21011313101264        0.52410943644933
C            9.06912227848686        0.92943601033931        0.31863058007678
C            6.27039964270142       -1.40439753960823        0.28033466008274
O            6.94829939911432       -2.38012925705718        0.92751999079483
C            6.31537317745639       -3.61583200086742        1.15217711710877
C            4.96302794628964       -1.49347471867959       -0.16064430359178
C           -0.05511211367372       -1.29906247805359       -0.62085686319744
C           -3.86758037025447        3.07992600430699        0.58498060215443
C           -4.49286159663096        2.77383493050346        1.94313289484366
C           -3.39165179876499        4.52917666589254        0.54797523472093
H           -4.66030026466202        0.94509067363451       -1.31640568823548
H           -6.85037928558380        0.25803162192116       -1.80468845313260
H           -7.17287442604349       -1.18600110843259       -2.79318157561361
H           -5.66836817451085       -0.26952966318766       -3.04040255244073
H           -4.88416720672258       -3.71589460520039        2.40913542187496
H           -5.29223570620378       -4.96637458756866        1.20969236903657
H           -3.61139813139015       -4.39919835331056        1.35529357841967
H           -3.07077796610445       -2.21868765711333        2.10002662693138
H           -2.14562754426994        0.02067850696302        2.01001344383370
H           -3.02188875377605        2.38238012313952       -1.88813545054866
H           -1.65198530896729        3.25146700677685       -1.20556284570283
H           -1.81103374245520        0.23006524641044       -1.62116301628650
H           -0.99335688527853        1.37490212198123       -2.69443256973690
H           -0.67628064361333        1.65183887049447        0.61785727145403
H            0.63525841192517        1.98466369793744       -0.92314021190751
H            2.11132552493482       -0.65949692842762        0.72532613231274
H            2.30680473056284        0.98978251704176        0.11078972794250
H            2.76694198818247        0.06750735147374       -2.17075252200790
H            2.67954581369920       -1.57455627803457       -1.51167743520200
H            4.62169998552446        1.56295612048703       -1.56123579000624
H            6.92357674630170        1.75715815945204       -0.79119596719031
H            8.65159112996149        1.81001823324363        0.81701555159939
H            9.20136171144928        1.14042857828877       -0.74698991949293
H           10.03428838009630        0.69003240176163        0.76064937965836
H            7.05567174969094       -4.23621171795340        1.65347565939075
H            5.43848001056755       -3.50813558175093        1.79970565785717
H            6.02060041905269       -4.09420497120334        0.21253282636366
H            4.40102758497114       -2.40127266373392       -0.00490198249042
H           -0.22071299714579       -1.61775583601871       -1.65116008982042
H           -1.01972258008625       -1.24102717432227       -0.10935206830928
H            0.55899954147532       -2.04486085926761       -0.12333730421426
H           -4.63991875734388        2.95501092798550       -0.18098088071825
H           -3.76095216473977        2.90314704960906        2.73380821053058
H           -4.87457614030224        1.75695641518947        1.97884603101694
H           -5.31925552549014        3.45579210326349        2.12325564252114
H           -2.60025590131176        4.69225046143352        1.27368918226171
H           -3.03987406413880        4.81897652321898       -0.43870975059559
H           -4.22191740670577        5.18069648090034        0.80616693961239
H           -0.59832433787845        2.77744694953323        2.72958984441332
72
 energy: -5.336112854216 xtb: 6.6.1 (8d0f1dd)
N           -1.49852874059925        2.79853832265586        2.23761549915710
C           -1.55045819679050        2.16827141372931        1.15331760138987
C           -2.74365355796248        2.07052548837623        0.24550356057323
C           -3.30728110868917        0.65624327850391        0.32874896972354
C           -4.28880669830979        0.24042164000289       -0.57235979411669
C           -4.82766908873771       -1.03442344310272       -0.52308981049331
O           -5.79563824306935       -1.49523946407438       -1.36609935564357
C           -6.37326732260500       -0.61331201859809       -2.29687503524844
C           -4.37632543030010       -1.95789993426328        0.45682763780279
O           -4.95732064856443       -3.19835429383311        0.43916557135013
C           -4.68000876102659       -4.16747986714157        1.43205200956429
C           -3.40595535181209       -1.53584710936554        1.34525276072973
C           -2.87999770781126       -0.24906366453702        1.28302434172959
C           -2.19058982268721        2.31595364878195       -1.18379189477888
C           -1.26125235622129        1.19217627189733       -1.67245478250172
C            0.00616737166705        1.13756467742336       -0.89912931179082
N            0.63321332875403       -0.04338471840329       -0.56660449364040
C            1.99990674914924       -0.03371816458995       -0.16144006953370
C            2.93430181751196       -0.53737632968367       -1.28287099050797
C            4.35772141341448       -0.43316205512225       -0.84024618652224
C            5.07496100666429        0.73122255042639       -1.04041594256376
C            6.38572842343563        0.84016668809410       -0.60058624585333
C            6.99478465193989       -0.21345908022585        0.05702855190960
O            8.27398914066146       -0.21889200689306        0.52735048126651
C            9.06801160802303        0.92069873757776        0.32192684226192
C            6.26604836475554       -1.40459566370673        0.27717059790440
O            6.94775042468755       -2.38971266121262        0.92633449189375
C            6.30872205763245       -3.62000615335634        1.14644346612861
C            4.96161653774103       -1.49513053539792       -0.16687640058420
C           -0.05687700887670       -1.29680815763109       -0.63358756365472
C           -3.87063082068895        3.08529114280011        0.58004160647779
C           -4.49822313972475        2.78417306818666        1.93969294645118
C           -3.40097933653606        4.53903813368989        0.54303669726694
H           -4.64241168637416        0.93863079375609       -1.31555594726656
H           -6.83177177776418        0.25380552356524       -1.80905245642190
H           -7.14899087663416       -1.19041558068748       -2.79880218128006
H           -5.64703862692943       -0.26867740851084       -3.04171427045582
H           -4.91250229738857       -3.80976671119621        2.44073438058713
H           -5.32414214228374       -5.01614090304876        1.20403540183480
H           -3.63634305661488       -4.49752976606034        1.39809976228405
H           -3.05103219667786       -2.20700298063578        2.11105203221314
H           -2.14208112226266        0.04140004892615        2.01451904095422
H           -3.02112492184512        2.40623798480163       -1.88505006025032
H           -1.64208986278352        3.26003356453348       -1.19637320139865
H           -1.80112163989352        0.24670331295463       -1.62973321346123
H           -1.01473345728608        1.39438132457139       -2.72354424676120
H           -0.68387755606432        1.66315738007009        0.65732920955288
H            0.65140451157079        1.99710858439321       -0.94714823180609
H            2.11514079493803       -0.66978617264289        0.72298391791148
H            2.29755241446276        0.98297195034163        0.11012558443001
H            2.76507056781334        0.07424475533824       -2.17059772319706
H            2.67735580434681       -1.57069217547003       -1.51978857075367
H            4.62128188710655        1.56336805698260       -1.55838357534880
H            6.92463866890477        1.75537550579152       -0.78616543887612
H            8.65024790163888        1.80220349958704        0.82041589156383
H            9.20071585931264        1.13535830658747       -0.74400865954634
H           10.03426201695609        0.68230400126969        0.76373504873580
H            7.04708732715973       -4.24415605622517        1.64761692611378
H            5.43078141206117       -3.51197443155114        1.79284569130132
H            6.01198113619791       -4.09701173544909        0.20605798879671
H            4.39559996268072       -2.40076725483203       -0.01092668503186
H           -0.22850505177015       -1.61094146351888       -1.66879868790615
H           -1.02273122054007       -1.23426892790368       -0.12300938155679
H            0.54942185978573       -2.05138348842906       -0.13797852827718
H           -4.64442575941249        2.96084132409123       -0.18655638299955
H           -3.76184223342193        2.91576028448062        2.72568295068280
H           -4.87393354483246        1.76455346955316        1.97602021969971
H           -5.32788584835790        3.46405231705209        2.11883831059104
H           -2.60951469945472        4.70206585017257        1.26802477458470
H           -3.04566377037893        4.82624268581056       -0.44372784539760
H           -4.23383220025717        5.19011454627538        0.79856870172585
H           -0.60593631557812        2.80029731546956        2.72803850385199
72
 energy: -3.956418356577 xtb: 6.6.1 (8d0f1dd)
N           -1.50540762717289        2.82601185511016        2.24071649855868
C           -1.55137002433200        2.18521208512178        1.16227126787590
C           -2.74119826648089        2.08137598248105        0.24791073353009
C           -3.30007738624927        0.66481414227769        0.33277924780089
C           -4.27456813368704        0.23452502044624       -0.56808937901468
C           -4.80698188840698       -1.04666594408630       -0.51544290424081
O           -5.77198011184281       -1.50128181167530       -1.36806087789166
C           -6.35070895762461       -0.61738279448318       -2.29880660231303
C           -4.35466383600381       -1.97301810613405        0.47136638588044
O           -4.92145262954392       -3.23003375637171        0.46932452514324
C           -4.69576549800510       -4.23572004098956        1.45738676581554
C           -3.38980237613465       -1.52768502722642        1.35513641934282
C           -2.87323889363031       -0.23667289651017        1.29048347291254
C           -2.18627548762669        2.32975758845608       -1.18139033243886
C           -1.25939682080282        1.20717146534672       -1.67976275710347
C            0.00785737093483        1.15006686989235       -0.90547234319633
N            0.63153859780057       -0.03768579837751       -0.57748206810686
C            1.99670847891339       -0.03490550669443       -0.16569790099746
C            2.93364493486416       -0.53432928751990       -1.28718061957615
C            4.35658870466870       -0.43320531917358       -0.84375044331790
C            5.07462271073515        0.73124146578867       -1.03929679349059
C            6.38520428352993        0.83796389237825       -0.59833869127011
C            6.99280545520308       -0.21787473099274        0.05721142186710
O            8.27260734712567       -0.22637718491336        0.52768534771403
C            9.06728775924160        0.91319063631857        0.32457206596467
C            6.26230591837610       -1.40840395747929        0.27446407006207
O            6.94275456260944       -2.39589696488202        0.92231231380280
C            6.30155419057197       -3.62519062329747        1.14052330798034
C            4.95837434758326       -1.49676022981507       -0.17131665952761
C           -0.06240091276761       -1.28953214673114       -0.64718273980615
C           -3.87310361960673        3.09326102639456        0.57608698577399
C           -4.50172809002373        2.79339228625476        1.93545366631669
C           -3.40840766077735        4.54871344234112        0.53730950337946
H           -4.62647699659758        0.93161591259852       -1.31529519061672
H           -6.81365333863718        0.24885103571959       -1.81306617388272
H           -7.12465893112097       -1.19518945545881       -2.80362337386791
H           -5.62581032143224       -0.26870178066216       -3.04343912140840
H           -4.94177175592064       -3.90384328686727        2.47181777971636
H           -5.35627867551042       -5.06354041076580        1.19742547276848
H           -3.66237949565454       -4.59677172252653        1.43995984278744
H           -3.03163356150125       -2.19408385274568        2.12307239677803
H           -2.13828800678801        0.06036496326165        2.02164131121302
H           -3.01726796356032        2.42685332454165       -1.88179794573737
H           -1.63381968755511        3.27178908884457       -1.18950752049935
H           -1.79853973695220        0.26170907534375       -1.63792261319114
H           -1.02123309041421        1.41256209251773       -2.73375077651294
H           -0.68345353008233        1.67546754520231        0.67620201174057
H            0.65736090272950        2.00558873324165       -0.95517315206827
H            2.10912920912913       -0.67546555990352        0.71635557981140
H            2.29426075197358        0.98036156778410        0.11112158580517
H            2.76375507180650        0.08077547002770       -2.17184714453558
H            2.67494883457177       -1.56657444532377       -1.52700598633782
H            4.62150408037114        1.56504451820137       -1.55525194355049
H            6.92506738546652        1.75312345855966       -0.78182750386329
H            8.64956210492808        1.79407492015269        0.82422903969486
H            9.20032345960771        1.12971943751891       -0.74097845074528
H           10.03317261220182        0.67323014892988        0.76645808901777
H            7.03888114287360       -4.25124986657910        1.64100925837134
H            5.42367333443762       -3.51643674285350        1.78683694371480
H            6.00406901169147       -4.10008591483869        0.19940864287889
H            4.39038541495879       -2.40122392384429       -0.01617617650809
H           -0.23580652126377       -1.59923202601389       -1.68339071900200
H           -1.02740955169845       -1.22674279631808       -0.13500787254366
H            0.54088299845730       -2.04935365223755       -0.15480547428367
H           -4.64561427761298        2.96529629754396       -0.19142747087501
H           -3.76519224139351        2.92916262153795        2.72042971466380
H           -4.87348893605497        1.77247029279751        1.97297350649043
H           -5.33386436759842        3.47096791056752        2.11310801376528
H           -2.61911703738289        4.71555798386100        1.26339263562874
H           -3.05156330113861        4.83539953638586       -0.44917840133122
H           -4.24358174622083        5.19799000176273        0.79032994087607
H           -0.61404799486847        2.83278750639783        2.73267511426104
72
 energy: -1.399195841676 xtb: 6.6.1 (8d0f1dd)
N           -1.51233367349622        2.85415990803732        2.24212602217461
C           -1.55167951095856        2.20282430290694        1.16968127605838
C           -2.73868466532085        2.09245450162277        0.24969055397588
C           -3.29233091192226        0.67337917855816        0.33615760196280
C           -4.26004310713648        0.22861285961204       -0.56403757205223
C           -4.78649803200704       -1.05870480364623       -0.50770988933636
O           -5.74833629564619       -1.50697987659967       -1.37013373208067
C           -6.32815646617001       -0.62119237880398       -2.30085084421728
C           -4.33326449947837       -1.98790825164336        0.48627278849394
O           -4.88521671503858       -3.26265027276685        0.50063269809161
C           -4.71132443415873       -4.30507043285537        1.48352145108956
C           -3.37366541650819       -1.51919511771657        1.36471203342321
C           -2.86607317460155       -0.22416380020057        1.29748918633073
C           -2.18243430223654        2.34425296383932       -1.17944359975070
C           -1.25819244235372        1.22301199111932       -1.68677548664205
C            0.00870532606645        1.16492635245794       -0.91270520588261
N            0.62601993313985       -0.02788206910516       -0.58503978589684
C            1.99162235237809       -0.03473346542866       -0.17035940549704
C            2.93180195686260       -0.53079547953985       -1.29152456072658
C            4.35451869928234       -0.43292207653418       -0.84686550524407
C            5.07395594298789        0.73134315228334       -1.03801214054994
C            6.38448002180442        0.83572438312519       -0.59622249221556
C            6.99064372414570       -0.22226287705193        0.05725605396482
O            8.27104331956255       -0.23389265966948        0.52792538566286
C            9.06646361333389        0.90560375402845        0.32726077171581
C            6.25827695138413       -1.41208463924878        0.27160751787507
O            6.93759123662198       -2.40192013083653        0.91815205890343
C            6.29440568537964       -3.63025427014631        1.13464002502298
C            4.95467102781734       -1.49814419279981       -0.17561250990245
C           -0.06859530645187       -1.28056010634525       -0.66055899251151
C           -3.87524802417656        3.10138308027718        0.57227675933072
C           -4.50501896980812        2.80253627037160        1.93132314897229
C           -3.41562140705606        4.55857607591007        0.53166564612359
H           -4.61046190545459        0.92419528353206       -1.31537743711098
H           -6.79544673842321        0.24411203499513       -1.81710574625526
H           -7.10031117252974       -1.19985581850086       -2.80843107359487
H           -5.60441156933091       -0.26868839469401       -3.04515023692805
H           -4.97081440577822       -3.99794297726839        2.50267535625979
H           -5.38771397033046       -5.11065621153118        1.19090851590887
H           -3.68884333301795       -4.69563975364891        1.48072493682722
H           -3.01207409249746       -2.18020673455885        2.13524143594902
H           -2.13454923909523        0.07936491051052        2.02881149488722
H           -3.01377632880608        2.44790269926919       -1.87892135564220
H           -1.62587920412400        3.28415739237908       -1.18291935648858
H           -1.79598592274655        0.27706376233404       -1.64570763974803
H           -1.02756211355181        1.43190042768256       -2.74292238727701
H           -0.68315326186603        1.68728884233625        0.69508437522669
H            0.66380870327550        2.01497276976123       -0.96308909459118
H            2.10213182557326       -0.68044066185806        0.70885427426523
H            2.29083515039871        0.97840588671046        0.11220669425700
H            2.76241516523139        0.08736162117917       -2.17353995181890
H            2.67212667305582       -1.56223824955084       -1.53412548951555
H            4.62151788480808        1.56673105168908       -1.55203931037823
H            6.92533888246010        1.75085099045197       -0.77749540280721
H            8.64900042696092        1.78594775470538        0.82812793765979
H            9.20007437696881        1.12400429261203       -0.73786002678101
H           10.03191207356708        0.66394848791732        0.76927883315656
H            7.03078873995689       -4.25810116799108        1.63444491087390
H            5.41661878445828       -3.52091620639609        1.78094767493527
H            5.99627001932536       -4.10320217460577        0.19284685865404
H            4.38504979929574       -2.40165829248747       -0.02137215392744
H           -0.24312489012996       -1.58647504901438       -1.69786399627153
H           -1.03285617338650       -1.21973790826750       -0.14701645162296
H            0.53258296578024       -2.04527622962371       -0.17185214865603
H           -4.64640287684451        2.96987796887229       -0.19621560664219
H           -3.76871922970666        2.94255090962872        2.71563385487101
H           -4.87292547855546        1.78035112340251        1.97011772312200
H           -5.33967580981767        3.47772277020536        2.10725517248233
H           -2.62858123297454        4.72940164662169        1.25889508640700
H           -3.05734136889121        4.84479930119009       -0.45455448944389
H           -4.25328355851498        5.20584172003811        0.78207436400513
H           -0.62224498031263        2.86544001826155        2.73554951634737
72
 energy: 2.303447816567 xtb: 6.6.1 (8d0f1dd)
N           -1.51925592827703        2.88244717768021        2.24253723099226
C           -1.55216324716188        2.22062614054355        1.17622859741558
C           -2.73631631997158        2.10343060461020        0.25110704514936
C           -3.28447566402235        0.68165445678807        0.33911639044168
C           -4.24537894373307        0.22206519517357       -0.56019885960728
C           -4.76637229492082       -1.07099500032432       -0.49988677618331
O           -5.72494239613139       -1.51272149651915       -1.37214982503596
C           -6.30564420657706       -0.62486182573599       -2.30292993591813
C           -4.31245525609389       -2.00290567648778        0.50181791859917
O           -4.84894004267972       -3.29649809131805        0.53301939101325
C           -4.72671271892218       -4.37575512601744        1.51066315136077
C           -3.35778910955821       -1.51077876593110        1.37421598920519
C           -2.85879872506116       -0.21183573279403        1.30417114453086
C           -2.17870223616577        2.35893772449447       -1.17762795416712
C           -1.25698681318482        1.23914164767538       -1.69348951830410
C            0.00986718579746        1.17977426102373       -0.92045693297337
N            0.62038080899458       -0.01788816428671       -0.59175270682325
C            1.98646954782659       -0.03433315991382       -0.17474239198095
C            2.92965145312099       -0.52707764021919       -1.29577001518983
C            4.35212145335045       -0.43248640763140       -0.84981371803724
C            5.07307322680275        0.73153048257262       -1.03668644960334
C            6.38359781839672        0.83349966149575       -0.59409245179239
C            6.98830902953776       -0.22663859998015        0.05727872863695
O            8.26924173323233       -0.24137663812737        0.52816756012672
C            9.06552650638308        0.89799536075465        0.32996284541029
C            6.25408576066245       -1.41576360739209        0.26877423937440
O            6.93227504453315       -2.40788698670391        0.91401090188057
C            6.28721499780285       -3.63531410638962        1.12878663273388
C            4.95075933019253       -1.49943338453848       -0.17980892045411
C           -0.07476225920744       -1.27153046419167       -0.67382015172942
C           -3.87720628514469        3.10953537960184        0.56858359780828
C           -4.50816383727828        2.81163920976858        1.92730218754682
C           -3.42263301198630        4.56847236965750        0.52609125185119
H           -4.59458823655066        0.91583460559145       -1.31573049527887
H           -6.77719722123114        0.23946512545057       -1.82108759948867
H           -7.07602617933423       -1.20411641579234       -2.81352061202371
H           -5.58293587011455       -0.26848271203542       -3.04673264294546
H           -4.99958056907482       -4.09195451065943        2.53328532442724
H           -5.41794839006940       -5.15817521564833        1.18568973041259
H           -3.71577288803513       -4.79439969625144        1.52067851541741
H           -2.99227497429527       -2.16578144846637        2.14749924837641
H           -2.13083939233689        0.09820539005662        2.03582179498915
H           -3.01026184219124        2.46917671364597       -1.87624672814251
H           -1.61800278918811        3.29665705251179       -1.17634060385858
H           -1.79344552578295        0.29263709710755       -1.65330930195483
H           -1.03384138254268        1.45201202689070       -2.75148451182224
H           -0.68301538874468        1.69887710597877        0.71387707013232
H            0.67104956069758        2.02400445234359       -0.97088612045298
H            2.09516177906032       -0.68526693486061        0.70151060516905
H            2.28720650525893        0.97667105488781        0.11375071614247
H            2.76101513588384        0.09406015891088       -2.17521148625766
H            2.66916996513941       -1.55775910931274       -1.54117255449977
H            4.62147955401372        1.56852120280647       -1.54882570976902
H            6.92552768759412        1.74855831093583       -0.77313416120180
H            8.64843715241260        1.77784094111797        0.83204864589193
H            9.19981538465165        1.11827139317727       -0.73470982088835
H           10.03054121625615        0.65462837273080        0.77212229707651
H            7.02270068375744       -4.26488291033099        1.62790739176974
H            5.40953341388576       -3.52546180282863        1.77511463561292
H            5.98847857909152       -4.10637416244841        0.18632877286290
H            4.37959368526690       -2.40206113852125       -0.02654715386713
H           -0.25034144799212       -1.57341602951907       -1.71229616993489
H           -1.03837026950926       -1.21294764133296       -0.15902454616627
H            0.52431415132448       -2.04121943339127       -0.18899167052683
H           -4.64695389462274        2.97455906468152       -0.20092760700724
H           -3.77236978866389        2.95596806367761        2.71118182867087
H           -4.87222904357967        1.78821045629402        1.96742584774703
H           -5.34537880053618        3.48436982351951        2.10133731898800
H           -2.63789374121635        4.74341229211280        1.25448696399194
H           -3.06297552021317        4.85422712110490       -0.45986567582840
H           -4.26285430955490        5.21364823306345        0.77376896235935
H           -0.63030603750781        2.89809280728182        2.73729900166218
72
 energy: 7.159796303493 xtb: 6.6.1 (8d0f1dd)
N           -1.52628762872554        2.91069832742748        2.24238876286792
C           -1.55266971269243        2.23878079634802        1.18208849226395
C           -2.73402651084352        2.11434699809625        0.25235752647880
C           -3.27655782091470        0.68982616230199        0.34195467369974
C           -4.23047244816651        0.21561247059196       -0.55668246617318
C           -4.74641921844905       -1.08298996010729       -0.49216457392232
O           -5.70156890501850       -1.51832141513247       -1.37412001885342
C           -6.28318976230281       -0.62853220716401       -2.30501586422769
C           -4.29202783310202       -2.01737291540137        0.51775490002839
O           -4.81206668006842       -3.33117215362910        0.56633562908705
C           -4.74148974093660       -4.44760093900575        1.53929156194680
C           -3.34217552527956       -1.50232778877286        1.38360856361822
C           -2.85145529333197       -0.19963468615612        1.31073834921921
C           -2.17502900302119        2.37366452139535       -1.17585267561389
C           -1.25583903058097        1.25540919698307       -1.70023653362900
C            0.01125823186679        1.19452560199881       -0.92906250841026
N            0.61466671842964       -0.00777225835941       -0.59828278199714
C            1.98112274305983       -0.03352313674323       -0.17897606396572
C            2.92709973716300       -0.52320314153503       -1.29992570927939
C            4.34950106529344       -0.43195614114989       -0.85266041135067