25
 energy: -42.118282325719 gnorm: 0.007230977677 xtb: 6.6.1 (8d0f1dd)
C            3.08297115234266        0.96635018466003        0.12617500964233
N            2.08263377058978       -0.05294053632038        0.33218457138439
C            2.35711868355191       -1.23428716760781        0.86928439224332
N            1.23906767739617       -1.96476499317684        0.91371853006080
C            0.20691431945836       -1.22001784932398        0.39149596479307
C            0.74010789212782        0.01076557078617        0.02553096005907
C            0.11444568803320        1.28217301005770       -0.50529264842873
O            0.82881055979803        2.18953451672587       -0.94230739210798
N           -1.19711732083528        1.28703853999677       -0.40459203614431
C           -1.95436762286870        2.43583407833856       -0.74590334330322
C           -1.47105278615662       -2.61811153493786        1.24013880458326
O           -1.32408812295990       -3.27987929355435        2.19417656634616
N           -1.08343971099944       -1.79146084575164        0.33009424632350
C           -1.95550845146500       -1.46686007287947       -0.79925698401717
H            3.61144492815854        1.16111540762345        1.05823002064525
H            3.79729309654465        0.63563766120398       -0.62815343690613
H            2.59751919014026        1.87664100773053       -0.22999945827869
H            3.32230511477027       -1.55278645112980        1.21252138910231
H           -1.33057682791806        3.23701859624723       -1.15433842682107
H           -2.72217937859375        2.16037133501867       -1.47283721067413
H           -2.46358597336620        2.79978115359547        0.15175987991476
H           -1.55674451365042       -1.91496270769575       -1.71174753128338
H           -1.97519575969828       -0.37220289354805       -0.89985297431897
H           -2.95218018571581       -1.85346888838535       -0.60590803116913
H            1.16583609541099       -2.90227928607260        1.28605075625483
25
 energy: -42.118428280390 gnorm: 0.003006607243 xtb: 6.6.1 (8d0f1dd)
C            3.08481936955404        0.96519397261215        0.12621759458423
N            2.08510897880247       -0.05448076389776        0.33209361580308
C            2.35885587248988       -1.23565904693388        0.86996659428116
N            1.24003385905915       -1.96512136474338        0.91426931414210
C            0.20989638539079       -1.21952042881291        0.38936535272496
C            0.74282517943819        0.00874175794742        0.02522039602934
C            0.11069421587583        1.27557420970957       -0.50211299902510
O            0.82442969656850        2.17907687181717       -0.94143423542649
N           -1.20016517211087        1.28174764862094       -0.39889278827777
C           -1.95769331940514        2.42972004994732       -0.74301904666979
C           -1.47423214894594       -2.59231541053331        1.24704629353646
O           -1.31926245508003       -3.27579015621364        2.18497485538333
N           -1.08198670552209       -1.78284420945045        0.32659706951338
C           -1.95342204613836       -1.46194310330372       -0.80359669248015
H            3.61195813250738        1.16139874279967        1.05861466430621
H            3.80020855994234        0.63418301210397       -0.62683904764311
H            2.59873001503658        1.87453170319507       -0.23163695585504
H            3.32356935627452       -1.55409079184926        1.21450629870572
H           -1.33413804972504        3.23094767343799       -1.15258270063204
H           -2.72444729333109        2.15302294365278       -1.47075097669718
H           -2.46791841192993        2.79517718214545        0.15313189201762
H           -1.55642342043895       -1.91183213484596       -1.71399239144967
H           -1.97541610069661       -0.36971640684651       -0.90429783458928
H           -2.95085649075206       -1.84568533042191       -0.60901238171664
H            1.16526350723163       -2.90207807853627        1.28733572733480
