25
 energy: 0.000000000000 xtb: 6.6.1 (8d0f1dd)
C            3.23720163006194        1.16630919979326        0.08434469647475
N            2.29877817382611        0.07527477071623        0.03981603040599
C            2.58028210190900       -1.21425402444508        0.03006176031096
N            1.43813958087363       -1.93419271955128        0.00098261760884
C            0.39035688448383       -1.05887472636071       -0.00790371836672
C            0.93510056364412        0.21347819449412        0.01709077491437
C            0.09450143893243        1.40504303904423       -0.00410947031874
O            0.49712751527797        2.54126714362870       -0.00342325688240
N           -1.25076640035757        1.06271879480407       -0.03085478223738
C           -2.21907211982101        2.15522099834493       -0.05001256985998
C           -1.81739487048744       -0.20012725993278       -0.04692818574614
O           -2.99983886758376       -0.37846417018721       -0.07008878229737
N           -0.92618586207120       -1.30210215599479       -0.03682761578324
C           -1.46982264913417       -2.64643102187190       -0.06029820460571
H            3.71247264356769        1.21471455160235        1.06488849150277
H            4.00791497605742        1.03430808813993       -0.67357694370751
H            2.69910007168542        2.09770118228144       -0.09130154882931
H            3.56654120610678       -1.63682992603973        0.04233140067262
H           -1.67107961066214        3.09322851271934       -0.02552706933167
H           -2.82428953597071        2.09428624779827       -0.95318082946668
H           -2.87644029173232        2.07745725625962        0.81450067533302
H           -1.17061996399332       -3.19584890659852        0.83242232437030
H           -1.14560257411436       -3.17511610292205       -0.95688275822323
H           -2.55549792440841       -2.55659984320617       -0.07459039797972
H            1.38130855184625       -2.94313852034425       -0.01389874181052
25
 energy: -5.044957697953 xtb: 6.6.1 (8d0f1dd)
C            3.24684799541112        1.19236425759167        0.08601230005291
N            2.31699505968012        0.10394394964073        0.03840771496904
C            2.61852263486028       -1.22074719327631        0.03192079497202
N            1.44981093276502       -1.93660984833220        0.00331548070273
C            0.40648939273020       -1.06404793060225       -0.00705741642326
C            0.93757943316975        0.21890021432971        0.01600802077883
C            0.10866412400292        1.39099036485161       -0.00518615531812
O            0.50406078387363        2.55733438106965       -0.00527724622717
N           -1.25184678974599        1.04343673030737       -0.03052458534113
C           -2.21240938942340        2.13953134670827       -0.04948622574128
C           -1.81386092733817       -0.20871818968542       -0.04624146250810
O           -3.01053262042831       -0.38981489608984       -0.06935438481197
N           -0.92957529719412       -1.31396366833885       -0.03671676931706
C           -1.51022706258427       -2.64895886089705       -0.06282837868027
H            3.72695642844380        1.24210656350666        1.06709998896904
H            4.01570394878662        1.06297777574369       -0.67738912675499
H            2.69555568984273        2.11436412339987       -0.08910286461676
H            3.60290936040543       -1.63425163061382        0.04498972740857
H           -1.65203370023387        3.07167419260940       -0.02536626831531
H           -2.81779711619437        2.08553092938174       -0.95379661160765
H           -2.86970874930788        2.06938080690197        0.81651668279463
H           -1.23191523075663       -3.21733735438557        0.82716892718316
H           -1.20949173706378       -3.19499539447397       -0.95983826699384
H           -2.59617086296002       -2.53638961205934       -0.07596978802400
H            1.38768836719540       -2.93767245511571       -0.01027019100272
25
 energy: -3.896601401610 xtb: 6.6.1 (8d0f1dd)
C            3.25704564419284        1.23269813712981        0.08705258678665
N            2.34094952673067        0.13810682636061        0.03555948485823
C            2.67150530087741       -1.21635718044839        0.03673247573175
N            1.48163701685954       -1.93245272127898        0.00917297623065
C            0.43307604399296       -1.07996226496458       -0.00512117702889
C            0.94401990161829        0.21885682787269        0.01434505817071
C            0.13192014527028        1.36305833709838       -0.00721037566496
O            0.50523844721939        2.55389681695580       -0.00950733964496
N           -1.24745867506746        1.01276422855974       -0.02981405813861
C           -2.19620529190077        2.11374927164980       -0.04834431316817
C           -1.79545559671400       -0.22768057302986       -0.04481589943118
O           -3.00112192958966       -0.41033967823745       -0.06711931013856
N           -0.92603362116884       -1.34050163969528       -0.03633194182736
C           -1.58689540862812       -2.65350993153881       -0.06806575058419
H            3.74891804760301        1.29365577850683        1.06508459904311
H            4.02641913061279        1.12205153491988       -0.68253077461587
H            2.68893957036075        2.14532305277607       -0.08318205880857
H            3.65979279619397       -1.60757696846441        0.05107760267094
H           -1.61729325219348        3.03613346537771       -0.02505024762876
H           -2.80228374241733        2.06794336035780       -0.95326027069783
H           -2.85324820945014        2.05309757645868        0.81915625218932
H           -1.35949403913806       -3.25837316565590        0.81726744915452
H           -1.34216624177111       -3.23051442401426       -0.96815758889528
H           -2.67131232179393       -2.47737519411654       -0.07826357264146
H            1.42172142623723       -2.92766287040732       -0.00163990977393
25
 energy: 3.136600682447 xtb: 6.6.1 (8d0f1dd)
C            3.26120091073076        1.27948428492477        0.08642609679501
N            2.36394072689793        0.16938226062480        0.03268455669091
C            2.72678160384940       -1.20271408441928        0.04408449349933
N            1.52952695416473       -1.92682855852026        0.01796282026311
C            0.46178665460998       -1.10712008731207       -0.00231842784652
C            0.95258772654230        0.21010675715525        0.01289152988711
C            0.15540908091495        1.33483500663602       -0.00974390849825
O            0.50334599849602        2.54192643666100       -0.01490157084647
N           -1.23947036911536        0.98089659577127       -0.02876050511112
C           -2.17100914158586        2.09054633393165       -0.04672241724675
C           -1.77204753177283       -0.25359983843377       -0.04264911482955
O           -2.98459315269224       -0.43104389109393       -0.06348899511394
N           -0.91925021432900       -1.38202691589829       -0.03575728260161
C           -1.68076947269569       -2.66767447279638       -0.07549012886469
H            3.76684167919839        1.35489494368318        1.05923680742021
H            4.03137763506436        1.19627285827761       -0.68949178950060
H            2.67590145669014        2.18398245777130       -0.07572128091009
H            3.72643817837090       -1.56038651933668        0.05959982085589
H           -1.56615248732972        2.99807723857569       -0.02510986154094
H           -2.77772197590935        2.05668865374353       -0.95182796309080
H           -2.82662918213631        2.04440262964698        0.82286126723393
H           -1.51848650216493       -3.31287399655262        0.80260014425164
H           -1.50746517342186       -3.27560142503946       -0.97936338240325
H           -2.75998229637985       -2.41311984944119       -0.08139166837584
H            1.48065356193936       -2.91947821638712        0.01142465603056
25
 energy: 14.925549766468 xtb: 6.6.1 (8d0f1dd)
C            3.25952358819143        1.32861101113492        0.08444438770865
N            2.38480124674067        0.19698879107578        0.03042881656383
C            2.78127969798952       -1.18122178257421        0.05335051728626
N            1.58873630287306       -1.91914779148430        0.02882971024666
C            0.48856419332472       -1.14209094251643        0.00066626474152
C            0.96237723486946        0.19369354771498        0.01157753486433
C            0.17758532766026        1.30997579668035       -0.01259396624451
O            0.50217113325474        2.52441367870105       -0.02051222453235
N           -1.22884514963022        0.95103396264350       -0.02751851268098
C           -2.13829328699154        2.07365865387128       -0.04471993823991
C           -1.74867725612079       -0.28258260479846       -0.04000077494803
O           -2.96750498077003       -0.44229414395515       -0.05840369456341
N           -0.91524577207291       -1.43673302732869       -0.03546877961960
C           -1.78508305596996       -2.69548307277440       -0.08470293310351
H            3.77880948499900        1.41885251432432        1.05078186454795
H            4.02913022940346        1.27638105051139       -0.69816194699713
H            2.65718638180155        2.22542796061575       -0.06784063103141
H            3.79836330655287       -1.49454596273842        0.06962448904569
H           -1.50206974543193        2.96216983314442       -0.02570142998004
H           -2.74560178182282        2.05639294508501       -0.94958063916532
H           -2.79125689175316        2.04792906397579        0.82751982287924
H           -1.69151049518397       -3.37506376122020        0.78318794235071
H           -1.68698391424496       -3.32594433955952       -0.99098966515749
H           -2.85338671046417       -2.37028818939314       -0.08532739782451
H            1.55814558073195       -2.91110458896366        0.02814508000058
25
 energy: 29.509131830457 xtb: 6.6.1 (8d0f1dd)
C            3.25564107474935        1.37257261354203        0.08157555121064
N            2.40460419814142        0.21527104667164        0.02978642855147
C            2.82953770241524       -1.15026835528173        0.06339762209734
N            1.65858852943468       -1.90665998165878        0.03999642495355
C            0.51266968115803       -1.17987538100061        0.00264614807034
C            0.97774963567656        0.17089998529183        0.01024884949076
C            0.19947855184321        1.29431022110714       -0.01539396213248
O            0.50853941569271        2.50131645945716       -0.02529994094745
N           -1.21142809288287        0.92822636529052       -0.02655672106217
C           -2.10479667272678        2.05977708773958       -0.04271092279729
C           -1.72481928018768       -0.31103721387829       -0.03746039244533
O           -2.94716551415254       -0.43858749320609       -0.05214352828911
N           -0.91381837886708       -1.49905546137917       -0.03608828146156
C           -1.89716726430068       -2.73377967171195       -0.09465853016149
H            3.78538686078008        1.47633871481611        1.04091169630860
H            4.02232372919089        1.35101713557773       -0.70691088923489
H            2.63867120268808        2.26273764211463       -0.06044649180154
H            3.86856197114910       -1.41076241910307        0.07967150258029
H           -1.44832725750012        2.93338207129292       -0.02648298293438
H           -2.71194910372032        2.05510186201664       -0.94652984193503
H           -2.75357670387156        2.05018238370759        0.83165092423271
H           -1.87067343497059       -3.43240151234354        0.76131458163731
H           -1.87183042981946       -3.37160500534878       -1.00097601318486
H           -2.94654670773528       -2.34820481914260       -0.08895829442019
H            1.65256095575181       -2.89986767239897        0.04645095982200
25
 energy: 42.774321271194 xtb: 6.6.1 (8d0f1dd)
C            3.25549336305399        1.39510154509028        0.07855640801673
N            2.42259978256033        0.21468569502657        0.03261185796238
C            2.85642530243190       -1.10899746410498        0.07102228194368
N            1.72843930323074       -1.88855614278314        0.04734414900660
C            0.53314957461255       -1.20470612634162        0.00241772097235
C            1.00376031978503        0.15012694586009        0.00893709569334
C            0.21876183542819        1.29560653456634       -0.01683327344380
O            0.53124066197810        2.47848710953793       -0.02778747122900
N           -1.18029972178643        0.91882136289854       -0.02652695569331
C           -2.08451376589969        2.04204962019461       -0.04155751491258
C           -1.70170391795983       -0.33272364409413       -0.03566412317671
O           -2.92024139589717       -0.42418578141723       -0.04613339030900
N           -0.90952372236024       -1.54707574285164       -0.03735485672765
C           -1.99709519599958       -2.76735154020174       -0.10252586859232
H            3.78559662145299        1.50556635043848        1.03334580281821
H            4.01582258620731        1.39168933548767       -0.71246434456540
H            2.62994631134128        2.28005057803235       -0.05698803894835
H            3.91357638495161       -1.32412200797003        0.08670951571008
H           -1.44633771638489        2.92185339839807       -0.02678096055784
H           -2.69081796863272        2.03121762206520       -0.94352655136933
H           -2.72910906703014        2.02666296620888        0.83275517868891
H           -2.02351716351434       -3.46193495100014        0.74424967368291
H           -2.02778541510915       -3.39258206123462       -1.00728933144312
H           -3.01988193579486       -2.32749104790357       -0.09011652035985
H            1.74822960727127       -2.88316395173026        0.06063341298031
25
 energy: 58.673565069423 xtb: 6.6.1 (8d0f1dd)
C            3.25962683032721        1.42004802156918        0.07580112132120
N            2.44168067604282        0.22774687014174        0.03519313793427
C            2.88983791210449       -1.07195963242843        0.07783124581848
N            1.78594183860433       -1.87917120665736        0.05349585444481
C            0.56031554219978       -1.21823464304850        0.00310458459143
C            1.02476936741599        0.14353498523636        0.00709970131319
C            0.23899244052406        1.28558480673402       -0.01775782257178
O            0.55849576765597        2.47181581076562       -0.03098029213289
N           -1.14580235735097        0.89951856426508       -0.02629713652380
C           -2.06764292559450        2.01302799168516       -0.04039424929324
C           -1.67734997610647       -0.35191987226105       -0.03316812543463
O           -2.89606761735526       -0.42478240785470       -0.04022304195616
N           -0.89967733695777       -1.57297798078794       -0.03712557996428
C           -2.08830544914910       -2.78160311881941       -0.10988548523465
H            3.78896513246743        1.53203158000143        1.02990125252440
H            4.01501796633340        1.42267847058693       -0.71837623332686
H            2.62059738077710        2.29491778197069       -0.05743455531168
H            3.95522509802603       -1.25668407302528        0.09515924739671
H           -1.45254994365764        2.90944068066687       -0.02646699827496
H           -2.67549528930674        1.99009285094073       -0.94169976668650
H           -2.71155658357966        1.98476689506591        0.83456404997139
H           -2.17029879031458       -3.49389567270319        0.73344619140894
H           -2.17826171604342       -3.41326574903645       -1.02009183276621
H           -3.09320299577573       -2.27307852232828       -0.09155840495588
H            1.82895969664949       -2.86860382850716        0.07289703385597
25
 energy: 66.606186827842 xtb: 6.6.1 (8d0f1dd)
C            3.27051046847441        1.42050319560922        0.07326174178146
N            2.45195539357242        0.22831534849566        0.03862840835054
C            2.89717423217187       -1.04060194076009        0.08049481032381
N            1.81736060031428       -1.86999695554043        0.05336484822412
C            0.57529064895648       -1.21144128906861        0.00261486345977
C            1.04239037782850        0.14866438784513        0.00463839281149
C            0.24358079403076        1.29031350654919       -0.01765902595251
O            0.58061072616758        2.47575532452665       -0.03051882796948
N           -1.11499555100162        0.89876499426719       -0.02677829466501
C           -2.06641108417211        1.99513973423790       -0.03977353955143
C           -1.66423682387855       -0.35335545181840       -0.03175230294165
O           -2.88021232812182       -0.40462316939166       -0.03510113123898
N           -0.89635901598116       -1.57015423024622       -0.03667892854610
C           -2.14795960407689       -2.79378911011157       -0.11428331512782
H            3.79291836113492        1.52813768078259        1.02979374888523
H            4.02433786378594        1.41283719875452       -0.71828595888424
H            2.63067098996018        2.29132489037858       -0.06313776956112
H            3.96215856227236       -1.22044134849587        0.10022940177858
H           -1.48708824047645        2.91832876659653       -0.02472332711634
H           -2.67546872322619        1.94756633191883       -0.94086032710557
H           -2.71202951091023        1.93871526943886        0.83426822159749
H           -2.23383890635872       -3.48955608358651        0.72673652351438
H           -2.24051909956467       -3.40845730488557       -1.02048598299031
H           -3.13144158400763       -2.28875396580773       -0.09378584258591
H            1.87381612104256       -2.85416717751625        0.07682750965685
25
 energy: 77.184628262698 xtb: 6.6.1 (8d0f1dd)
C            3.28516880483687        1.43708786290007        0.06981854122073
N            2.46932713927815        0.24447885309132        0.04009391177433
C            2.92623373097107       -1.01569570706114        0.08366478825168
N            1.85510377770706       -1.86307233487277        0.05432258563943
C            0.60301602886005       -1.20621560366123        0.00827604471316
C            1.05979750531069        0.15788126209804        0.00206761355168
C            0.24764833149431        1.28817125863164       -0.01856563684887
O            0.59762882218225        2.48124280745747       -0.02889186514040
N           -1.09157273670244        0.89324385663946       -0.02744797022244
C           -2.06252193759931        1.97798141097690       -0.03955467351715
C           -1.64437307942834       -0.36183925022402       -0.02740751458423
O           -2.86094671691327       -0.40243935037045       -0.02973669976668
N           -0.88642546901777       -1.56978457972748       -0.02961378202198
C           -2.23392974611776       -2.81646134994207       -0.12233643405752
H            3.80403423925076        1.54377416246899        1.02896775214457
H            4.04168522893856        1.42293523374759       -0.71956985569687
H            2.63898549682409        2.30195642054562       -0.06935240291414
H            3.99191161051152       -1.19082861024831        0.10817124870227
H           -1.50542324565498        2.91847716144182       -0.02319383296266
H           -2.67177177813441        1.91235602217450       -0.94079257259862
H           -2.70970737935306        1.90096570856756        0.83366499089215
H           -2.32525472429111       -3.51146169258812        0.71591019734372
H           -2.33602801962688       -3.42751253533288       -1.02806795598017
H           -3.20041473089883       -2.28507057620254       -0.09662291361828
H            1.92004351550904       -2.84114182833805        0.08323033184354
25
 energy: 84.734299301181 xtb: 6.6.1 (8d0f1dd)
C            3.30319460688093        1.45408613233797        0.06578893703984
N            2.49245223352116        0.25726103407292        0.04357506646624
C            2.95654976341253       -0.97496617928496        0.08442405206181
N            1.90726348203750       -1.84388591402155        0.05421610750139
C            0.64369497731408       -1.18801335791101        0.01791432544011
C            1.09300727446925        0.17017239284611        0.00112626517696
C            0.24973499454188        1.29714697363867       -0.01809483287684
O            0.61662446020764        2.48688467576677       -0.02531978460605
N           -1.05575126130760        0.89534592107899       -0.02891075655482
C           -2.05686915672338        1.96375752696774       -0.04038536415240
C           -1.61133093168819       -0.37741362199679       -0.02181213732367
O           -2.82444517157930       -0.40085805045054       -0.02421836924861
N           -0.85869919371332       -1.56779554710100       -0.01643624999565
C           -2.36236079542869       -2.86695055359482       -0.13310851842571
H            3.81358059302982        1.55738045438242        1.02810347036503
H            4.05956509866379        1.43140722830906       -0.72077705052387
H            2.65098260955092        2.31262234852387       -0.07627101317725
H            4.02292039135557       -1.14491006213331        0.11366761712914
H           -1.53102933923404        2.92582353941078       -0.02292684458303
H           -2.66759094542374        1.87923615236463       -0.94078941307461
H           -2.70679445168596        1.86576204445939        0.83092885542572
H           -2.44148471053631       -3.54882574081506        0.70162318357146
H           -2.45576219105142       -3.46324213710240       -1.03402417703661
H           -3.29833813064475       -2.31504093721117       -0.10112728951676
H            1.97310046196795       -2.81595572036479        0.08986781706548
25
 energy: 86.070984795962 xtb: 6.6.1 (8d0f1dd)
C            3.31819717060432        1.47127372179672        0.06386828835975
N            2.51275462397052        0.27001316301841        0.04720736647200
C            2.98500224497364       -0.93938854555707        0.08412470196541
N            1.95341862470498       -1.82377200647701        0.05410826523493
C            0.68422604158164       -1.16307638581304        0.02167881390606
C            1.12640098749480        0.18430371694200        0.00270434269825
C            0.25126829453078        1.31079041731511       -0.01628708347686
O            0.63157993267247        2.49404312022885       -0.02234059085197
N           -1.02429505105990        0.90190460839501       -0.02950978332408
C           -2.05140455594319        1.95497724480947       -0.04123486172243
C           -1.57452711203182       -0.39675676850589       -0.01829475044188
O           -2.78385826541084       -0.41234674531448       -0.01977380222200
N           -0.81560450675845       -1.56122568651600       -0.00854415043592
C           -2.49033281293717       -2.92236642837362       -0.14202398927823
H            3.82161857850105        1.57192678216542        1.02833147697468
H            4.07338086286764        1.44124278068077       -0.72080393369073
H            2.66073115048281        2.32429587109940       -0.08140498329254
H            4.05204018589775       -1.10602904674221        0.11573338360522
H           -1.55045339502397        2.93231356054208       -0.02309742912777
H           -2.66273278900018        1.85675223716184       -0.94067320398802
H           -2.70275791215467        1.84215891851844        0.82833314661204
H           -2.54607739254340       -3.59184235711744        0.69348265999701
H           -2.56611895138892       -3.50915362456927       -1.04006915842975
H           -3.39909609671253       -2.34906324655382       -0.10400051634946
H            2.00885481061895       -2.79194669896177        0.09551968695355
25
 energy: 75.252968418075 xtb: 6.6.1 (8d0f1dd)
C            3.32948380975521        1.47963645368955        0.06203533698207
N            2.52931990575030        0.26832462078450        0.05490686799278
C            3.00473644269197       -0.90192065786156        0.07376722526863
N            1.99185396852378       -1.79223603853498        0.04759555406566
C            0.76609154968866       -1.06177342648567        0.03114563866947
C            1.19564960993295        0.21522021878089        0.01078672060659
C            0.21399472062195        1.35494371020163       -0.01400188966273
O            0.63404365967091        2.49686794573410       -0.01615617954897
N           -0.98619759194829        0.94899897250228       -0.03397443745984
C           -2.05761405576117        1.97115320676186       -0.04394190626468
C           -1.51141696042965       -0.43767769319663       -0.01423937419370
O           -2.70885204385879       -0.46089448512503       -0.01860966891435
N           -0.67180215444298       -1.47673155762948        0.01701556897160
C           -2.70783255050071       -3.05928516406154       -0.15794453214636
H            3.81911542141791        1.57222331907481        1.02968481613041
H            4.08198366003629        1.43490798537278       -0.71885353906515
H            2.66768670507010        2.32898349874780       -0.08788257691416
H            4.06297385459747       -1.10278474426476        0.11406198423770
H           -1.57862837452334        2.95164551681954       -0.02435675062151
H           -2.66849092254544        1.85916845999878       -0.94047567365794
H           -2.70882085292310        1.84403600137024        0.82238847344300
H           -2.59350770127242       -3.65994794224929        0.70262925047450
H           -2.62315958295817       -3.59180994577655       -1.05802288155987
H           -3.54728773192640       -2.42938526118636       -0.10783872423585
H            1.97889188326930       -2.76263439129500        0.09731459354996
25
 energy: 67.226782811303 xtb: 6.6.1 (8d0f1dd)
C            3.34569614524837        1.50824567049758        0.06222248426696
N            2.55161706477318        0.29755564216853        0.05410089755901
C            3.04684372283845       -0.88843527848746        0.07300596600360
N            2.02208769512618       -1.77657193040045        0.05093298461187
C            0.80382015574404       -1.03608276360507        0.03907811786628
C            1.22314648446579        0.23704254260989        0.01276972484995
C            0.22622226009241        1.38495425213488       -0.01351682062932
O            0.65413348479183        2.51993859553052       -0.01472844097880
N           -0.98152282063567        0.96438535474604       -0.03496411238080
C           -2.05373216516355        1.97654545970382       -0.04452270341960
C           -1.47689122408616       -0.46616212861042       -0.01101784358385
O           -2.67683542537930       -0.48513175657336       -0.01859137613147
N           -0.59926819324264       -1.45884038331134        0.03110638559689
C           -2.87108659107692       -3.16076647747870       -0.16893243230448
H            3.83362076863134        1.60057943383842        1.03014641460173
H            4.09598190558207        1.46422762065446       -0.72041919240480
H            2.67489297007418        2.35098642651894       -0.08835830451190
H            4.10897261743594       -1.08236166470965        0.11585572898139
H           -1.57507239035407        2.95383083902879       -0.02510079398698
H           -2.66074623507016        1.86195628706974       -0.94105900947710
H           -2.69981276291232        1.84703643249609        0.82262896196835
H           -2.67156443950006       -3.72278457212217        0.70800543392177
H           -2.71584499402049       -3.66796577049774       -1.08173443210052
H           -3.66959157952262       -2.48777928663686       -0.11166743045700
H            1.97714821409654       -2.74537394239255        0.10179368828605
25
 energy: 53.747365444895 xtb: 6.6.1 (8d0f1dd)
C            3.36052789835797        1.51743427677201        0.06630352968075
N            2.56321814138840        0.32729422642761        0.04636512674881
C            3.06647799435095       -0.92470937088693        0.06988616477312
N            1.98889076412711       -1.77132425843448        0.05500131062925
C            0.80556060471044       -1.01289823882720        0.04765396168589
C            1.21983149207940        0.26854671414258        0.01475994279486
C            0.24106426820913        1.42406171216062       -0.01426543731478
O            0.65282204087616        2.55723938476751       -0.01403887983310
N           -1.02985137896799        0.99440437095172       -0.03545825496823
C           -2.06409641313420        2.00003934172411       -0.04453117344724
C           -1.47133740580322       -0.48492278184714       -0.01067351282273
O           -2.67599998659806       -0.54551125462335       -0.02828432673099
N           -0.49297793521509       -1.39506694126071        0.04762841176099
C           -2.98695553094220       -3.28970963733276       -0.17424403370522
H            3.85012853016026        1.61119265916195        1.03450169116133
H            4.10997274642936        1.47649721645218       -0.72067274012474
H            2.68649922781352        2.35959065176458       -0.08553503381041
H            4.12776111044219       -1.11620211966890        0.11098270988299
H           -1.55964255361220        2.95406469011384       -0.02538569989915
H           -2.66380594514930        1.89558553795256       -0.94240992214465
H           -2.70191339547299        1.88141374210823        0.82440627683886
H           -2.60957037484861       -3.75617706733655        0.74588285669593
H           -2.66713666048335       -3.72763141333943       -1.11839471647378
H           -3.72964175315795       -2.50755301674402       -0.11702543749709
H            1.89238918237664       -2.74662982202618        0.09458108226660
25