25
 energy: -42.502602483842 xtb: 6.6.1 (8d0f1dd)
C            3.27022483238929        1.37360546464230        0.08031362412997
N            2.44941613524348        0.19716983982643        0.03945851836111
C            2.85994406293218       -1.07773940272478        0.07390359706144
N            1.75865842716802       -1.89320793188636        0.05344161349568
C            0.59676328698573       -1.14631103601092        0.01400714568659
C            1.08393280846352        0.17723114550533        0.00404037241647
C            0.23410383541010        1.31317418061527       -0.01891467730718
O            0.60557576203876        2.48514273106876       -0.02777764810915
N           -1.08827558359634        0.93909246703443       -0.02722387463486
C           -2.06385515105630        2.02820575179662       -0.04101564618339
C           -1.58297656346034       -0.37278126208086       -0.01738649118040
O           -2.79314247682848       -0.43081714871693       -0.01708550948578
N           -0.72262102189551       -1.46008793363046       -0.00115791681114
C           -2.37435814953247       -2.94566709739721       -0.12501063803942
H            3.77802110213158        1.44125305534054        1.04579480408741
H            4.02500622012107        1.31425641016309       -0.70471528494475
H            2.63750245470343        2.25391484647108       -0.05996771081312
H            3.88980817207010       -1.36669292684164        0.08575003546921
H           -1.47730197769608        2.94753146530438       -0.02692078360162
H           -2.67504436622660        1.97473119579018       -0.94008257062579
H           -2.71033310923022        1.97026621952720        0.83297901096657
H           -2.05072397376655       -3.46060733743079        0.75509471939973
H           -2.08220537029757       -3.40069831775187       -1.04174030260858
H           -3.23493077807214       -2.31410980954786       -0.09775550487491
H            1.81198031216326       -2.89319772828893        0.07220890853147
