      -----------------------------------------------------------      
     |                   =====================                   |     
     |                           x T B                           |     
     |                   =====================                   |     
     |                         S. Grimme                         |     
     |          Mulliken Center for Theoretical Chemistry        |     
     |                    University of Bonn                     |     
      -----------------------------------------------------------      

   * xtb version 6.6.1 (8d0f1dd) compiled by 'conda@1efc2f54142f' on 2023-08-01

   xtb is free software: you can redistribute it and/or modify it under
   the terms of the GNU Lesser General Public License as published by
   the Free Software Foundation, either version 3 of the License, or
   (at your option) any later version.
   
   xtb is distributed in the hope that it will be useful,
   but WITHOUT ANY WARRANTY; without even the implied warranty of
   MERCHANTABILITY or FITNESS FOR A PARTICULAR PURPOSE.  See the
   GNU Lesser General Public License for more details.
   
   Cite this work as:
   * C. Bannwarth, E. Caldeweyher, S. Ehlert, A. Hansen, P. Pracht,
     J. Seibert, S. Spicher, S. Grimme, WIREs Comput. Mol. Sci., 2020, 11,
     e01493. DOI: 10.1002/wcms.1493
   
   for GFN2-xTB:
   * C. Bannwarth, S. Ehlert and S. Grimme., J. Chem. Theory Comput., 2019,
     15, 1652-1671. DOI: 10.1021/acs.jctc.8b01176
   for GFN1-xTB:
   * S. Grimme, C. Bannwarth, P. Shushkov, J. Chem. Theory Comput., 2017,
     13, 1989-2009. DOI: 10.1021/acs.jctc.7b00118
   for GFN0-xTB:
   * P. Pracht, E. Caldeweyher, S. Ehlert, S. Grimme, ChemRxiv, 2019, preprint.
     DOI: 10.26434/chemrxiv.8326202.v1
   for GFN-FF:
   * S. Spicher and S. Grimme, Angew. Chem. Int. Ed., 2020, 59, 15665-15673.
     DOI: 10.1002/anie.202004239
   
   for ALPB and GBSA implicit solvation:
   * S. Ehlert, M. Stahn, S. Spicher, S. Grimme, J. Chem. Theory Comput.,
     2021, 17, 4250-4261. DOI: 10.1021/acs.jctc.1c00471
   
   for DFT-D4:
   * E. Caldeweyher, C. Bannwarth and S. Grimme, J. Chem. Phys., 2017,
     147, 034112. DOI: 10.1063/1.4993215
   * E. Caldeweyher, S. Ehlert, A. Hansen, H. Neugebauer, S. Spicher,
     C. Bannwarth and S. Grimme, J. Chem. Phys., 2019, 150, 154122.
     DOI: 10.1063/1.5090222
   * E. Caldeweyher, J.-M. Mewes, S. Ehlert and S. Grimme, Phys. Chem. Chem. Phys.
     2020, 22, 8499-8512. DOI: 10.1039/D0CP00502A
   
   for sTDA-xTB:
   * S. Grimme and C. Bannwarth, J. Chem. Phys., 2016, 145, 054103.
     DOI: 10.1063/1.4959605
   
   in the mass-spec context:
   * V. Asgeirsson, C. Bauer and S. Grimme, Chem. Sci., 2017, 8, 4879.
     DOI: 10.1039/c7sc00601b
   * J. Koopman and S. Grimme, ACS Omega 2019, 4, 12, 15120-15133.
     DOI: 10.1021/acsomega.9b02011
   
   for metadynamics refer to:
   * S. Grimme, J. Chem. Theory Comput., 2019, 155, 2847-2862
     DOI: 10.1021/acs.jctc.9b00143
   
   for SPH calculations refer to:
   * S. Spicher and S. Grimme, J. Chem. Theory Comput., 2021, 17, 1701-1714
     DOI: 10.1021/acs.jctc.0c01306
   
   with help from (in alphabetical order)
   P. Atkinson, C. Bannwarth, F. Bohle, G. Brandenburg, E. Caldeweyher
   M. Checinski, S. Dohm, S. Ehlert, S. Ehrlich, I. Gerasimov, C. Hölzer
   A. Katbashev, J. Koopman, C. Lavigne, S. Lehtola, F. März, M. Müller,
   F. Musil, H. Neugebauer, J. Pisarek, C. Plett, P. Pracht, F. Pultar,
   J. Seibert, P. Shushkov, S. Spicher, M. Stahn, M. Steiner, T. Strunk,
   J. Stückrath, T. Rose, and J. Unsleber
   
 * started run on 2024/04/06 at 11:15:40.025     

           -------------------------------------------------
          |                Calculation Setup                |
           -------------------------------------------------

          program call               : xtb xtbopt.xyz --opt crude --input .xc2 --gfn2
          hostname                   : n-62-30-23
          coordinate file            : xtbopt.xyz
          omp threads                :                     1

   ID    Z sym.   atoms
    1    7 N      1, 17
    2    6 C      2-6, 8, 9, 11-16, 18-23, 25, 26, 28-33
    3    8 O      7, 10, 24, 27
    4    1 H      34-72
########################################################################
[WARNING] Please study the warnings concerning your input carefully
-1- readin_getIntValue: could not parse ''
########################################################################

           -------------------------------------------------
          |                 G F N 2 - x T B                 |
           -------------------------------------------------

        Reference                      10.1021/acs.jctc.8b01176
      * Hamiltonian:
        H0-scaling (s, p, d)           1.850000    2.230000    2.230000
        zeta-weighting                 0.500000
      * Dispersion:
        s8                             2.700000
        a1                             0.520000
        a2                             5.000000
        s9                             5.000000
      * Repulsion:
        kExp                           1.500000    1.000000
        rExp                           1.000000
      * Coulomb:
        alpha                          2.000000
        third order                    shell-resolved
        anisotropic                    true
        a3                             3.000000
        a5                             4.000000
        cn-shift                       1.200000
        cn-exp                         4.000000
        max-rad                        5.000000

q/qsh data taken from xtbrestart
CAMM data taken from xtbrestart

          ...................................................
          :                      SETUP                      :
          :.................................................:
          :  # basis functions                 171          :
          :  # atomic orbitals                 171          :
          :  # shells                          105          :
          :  # electrons                       180          :
          :  max. iterations                   250          :
          :  Hamiltonian                  GFN2-xTB          :
          :  restarted?                       true          :
          :  GBSA solvation                  false          :
          :  PC potential                    false          :
          :  electronic temp.         5000.0000000     K    :
          :  accuracy                    1.0000000          :
          :  -> integral cutoff          0.2500000E+02      :
          :  -> integral neglect         0.1000000E-07      :
          :  -> SCF convergence          0.1000000E-05 Eh   :
          :  -> wf. convergence          0.1000000E-03 e    :
          :  Broyden damping             0.4000000          :
          ...................................................

 iter      E             dE          RMSdq      gap      omega  full diag
   1   -100.8051232 -0.100805E+03  0.662E-06    3.24       0.0  T
   2   -100.8051232 -0.852651E-12  0.438E-06    3.24    2692.1  T
   3   -100.8051232  0.568434E-13  0.283E-06    3.24    4170.4  T

   *** convergence criteria satisfied after 3 iterations ***

         #    Occupation            Energy/Eh            Energy/eV
      -------------------------------------------------------------
         1        2.0000           -0.8707856             -23.6953
       ...           ...                  ...                  ...
        84        1.9995           -0.5006125             -13.6224
        85        1.9991           -0.4917958             -13.3824
        86        1.9981           -0.4793436             -13.0436
        87        1.9950           -0.4638321             -12.6215
        88        1.9913           -0.4550920             -12.3837
        89        1.9869           -0.4486170             -12.2075
        90        1.9474           -0.4262995             -11.6002 (HOMO)
        91        0.0396           -0.3073412              -8.3632 (LUMO)
        92        0.0301           -0.3029076              -8.2425
        93        0.0081           -0.2818808              -7.6704
        94        0.0065           -0.2784825              -7.5779
        95        0.0001           -0.2107453              -5.7347
       ...           ...                  ...                  ...
       171                          1.0824026              29.4537
      -------------------------------------------------------------
                  HL-Gap            0.1189583 Eh            3.2370 eV
             Fermi-level           -0.3691176 Eh          -10.0442 eV

 SCC (total)                   0 d,  0 h,  0 min,  0.119 sec
 SCC setup                      ...        0 min,  0.001 sec (  1.185%)
 Dispersion                     ...        0 min,  0.002 sec (  1.735%)
 classical contributions        ...        0 min,  0.001 sec (  0.564%)
 integral evaluation            ...        0 min,  0.018 sec ( 15.346%)
 iterations                     ...        0 min,  0.027 sec ( 22.517%)
 molecular gradient             ...        0 min,  0.069 sec ( 58.109%)
 printout                       ...        0 min,  0.001 sec (  0.532%)

         :::::::::::::::::::::::::::::::::::::::::::::::::::::
         ::                     SUMMARY                     ::
         :::::::::::::::::::::::::::::::::::::::::::::::::::::
         :: total energy             -99.254041003470 Eh    ::
         :: gradient norm              1.332570085907 Eh/a0 ::
         :: HOMO-LUMO gap              3.237020784888 eV    ::
         ::.................................................::
         :: SCC energy              -100.805123190127 Eh    ::
         :: -> isotropic ES            0.137037418953 Eh    ::
         :: -> anisotropic ES          0.008414704559 Eh    ::
         :: -> anisotropic XC          0.036959396697 Eh    ::
         :: -> dispersion             -0.076321232371 Eh    ::
         :: repulsion energy           1.550209371722 Eh    ::
         :: add. restraining           0.000000000000 Eh    ::
         :: total charge               0.999999999654 e     ::
         :::::::::::::::::::::::::::::::::::::::::::::::::::::

      ----------------------------------------------------------- 
     |                   =====================                   |
     |                        A N C O P T                        |
     |                   =====================                   |
     |               Approximate Normal Coordinate               |
     |                Rational Function Optimizer                |
      ----------------------------------------------------------- 

          ...................................................
          :                      SETUP                      :
          :.................................................:
          :   optimization level             crude          :
          :   max. optcycles                   200          :
          :   ANC micro-cycles                  20          :
          :   degrees of freedom               210          :
          :.................................................:
          :   RF solver                   davidson          :
          :   write xtbopt.log                true          :
          :   linear?                        false          :
          :   energy convergence         0.5000000E-03 Eh   :
          :   grad. convergence          0.1000000E-01 Eh/α :
          :   maxmium RF displ.          1.0000000          :
          :   Hlow (freq-cutoff)         0.1000000E-01      :
          :   Hmax (freq-cutoff)         5.0000000          :
          :   S6 in model hess.         20.0000000          :
          ...................................................

generating ANC from model Hessian ...
Using Lindh-Hessian (1995)
 Shifting diagonal of input Hessian by    9.9357420141654301E-003
 Lowest  eigenvalues of input Hessian
    0.000000    0.000000    0.000000    0.000000    0.000000    0.000000
    0.010000    0.010051    0.010106    0.010234    0.010289    0.010412
    0.010865    0.011006    0.011762    0.012323    0.013025    0.013081
 Highest eigenvalues
    1.994206    2.045835    2.047835    2.176856    2.181872    2.694892


........................................................................
.............................. CYCLE    1 ..............................
........................................................................

 iter      E             dE          RMSdq      gap      omega  full diag
   1   -100.8051232 -0.100805E+03  0.962E-07    3.24       0.0  T
   2   -100.8051232  0.142109E-12  0.641E-07    3.24   18371.3  T
   3   -100.8051232 -0.710543E-13  0.391E-07    3.24   30139.9  T
     SCC iter.                  ...        0 min,  0.026 sec
     gradient                   ...        0 min,  0.069 sec
 * total energy  :   -99.2540410 Eh     change       -0.9237056E-12 Eh
   gradient norm :     1.3325701 Eh/α   predicted     0.0000000E+00 (-100.00%)
   displ. norm   :     0.4559886 α      lambda       -0.5789350E+00
   maximum displ.:     0.3972223 α      in ANC's #210, #147, #156, ...

........................................................................
.............................. CYCLE    2 ..............................
........................................................................

 iter      E             dE          RMSdq      gap      omega  full diag
   1   -100.7777305 -0.100778E+03  0.304E-01    3.27       0.0  T
   2   -100.7782757 -0.545131E-03  0.163E-01    3.27       1.0  T
   3   -100.7783066 -0.309444E-04  0.437E-02    3.26       1.0  T
   4   -100.7783087 -0.207994E-05  0.100E-02    3.26       1.2  T
   5   -100.7783094 -0.647084E-06  0.554E-03    3.26       2.1  T
   6   -100.7783103 -0.943956E-06  0.152E-03    3.26       7.7  T
   7   -100.7783104 -0.863313E-07  0.591E-04    3.26      19.9  T
   8   -100.7783104 -0.462624E-08  0.199E-04    3.26      59.3  T
     SCC iter.                  ...        0 min,  0.065 sec
     gradient                   ...        0 min,  0.070 sec
 * total energy  :   -99.4384382 Eh     change       -0.1843972E+00 Eh
   gradient norm :     0.0390972 Eh/α   predicted    -0.3496843E+00 (  89.64%)
   displ. norm   :     0.2087991 α      lambda       -0.6996423E-02
   maximum displ.:     0.0576037 α      in ANC's #51, #37, #27, ...

........................................................................
.............................. CYCLE    3 ..............................
........................................................................

 iter      E             dE          RMSdq      gap      omega  full diag
   1   -100.7755357 -0.100776E+03  0.841E-02    3.28       0.0  T
   2   -100.7755463 -0.105754E-04  0.484E-02    3.26       1.0  T
   3   -100.7755363  0.996311E-05  0.120E-02    3.27       1.0  T
   4   -100.7755495 -0.131901E-04  0.328E-03    3.27       3.6  T
   5   -100.7755498 -0.356352E-06  0.155E-03    3.27       7.6  T
   6   -100.7755499 -0.203031E-07  0.355E-04    3.27      33.2  T
   7   -100.7755499 -0.411175E-08  0.124E-04    3.27      95.1  T
     SCC iter.                  ...        0 min,  0.057 sec
     gradient                   ...        0 min,  0.075 sec
 * total energy  :   -99.4409181 Eh     change       -0.2479918E-02 Eh
   gradient norm :     0.0119667 Eh/α   predicted    -0.2238604E-02 (  -9.73%)
   displ. norm   :     0.1016577 α      lambda       -0.1292533E-02
   maximum displ.:     0.0333351 α      in ANC's #37, #27, #58, ...

........................................................................
.............................. CYCLE    4 ..............................
........................................................................

 iter      E             dE          RMSdq      gap      omega  full diag
   1   -100.7740304 -0.100774E+03  0.255E-02    3.27       0.0  T
   2   -100.7740333 -0.291740E-05  0.151E-02    3.26       1.0  T
   3   -100.7740326  0.709110E-06  0.470E-03    3.27       2.5  T
   4   -100.7740335 -0.906620E-06  0.176E-03    3.27       6.7  T
   5   -100.7740338 -0.256209E-06  0.587E-04    3.27      20.1  T
   6   -100.7740338 -0.468268E-08  0.235E-04    3.27      50.3  T
     SCC iter.                  ...        0 min,  0.049 sec
     gradient                   ...        0 min,  0.075 sec
 * total energy  :   -99.4412163 Eh     change       -0.2982226E-03 Eh
   gradient norm :     0.0040560 Eh/α   predicted    -0.2556285E-03 ( -14.28%)
   displ. norm   :     0.0556522 α      lambda       -0.2662761E-03
   maximum displ.:     0.0191488 α      in ANC's #2, #22, #20, ...

   *** GEOMETRY OPTIMIZATION CONVERGED AFTER 4 ITERATIONS ***

------------------------------------------------------------------------
 total energy gain   :        -0.1871753 Eh     -117.4543 kcal/mol
 total RMSD          :         0.0668201 a0        0.0354 Å
 total power (kW/mol):      -122.8571772 (step) -749.0718 (real)
------------------------------------------------------------------------

 ANCopt (total)                0 d,  0 h,  0 min,  0.656 sec
 optimizer setup                ...        0 min,  0.000 sec (  0.035%)
 model hessian                  ...        0 min,  0.067 sec ( 10.229%)
 ANC generation                 ...        0 min,  0.006 sec (  0.964%)
 coordinate transformation      ...        0 min,  0.000 sec (  0.041%)
 single point calculation       ...        0 min,  0.575 sec ( 87.620%)
 optimization log               ...        0 min,  0.003 sec (  0.426%)
 hessian update                 ...        0 min,  0.000 sec (  0.034%)
 rational function              ...        0 min,  0.003 sec (  0.427%)

================
 final structure:
================
72
 xtb: 6.6.1 (8d0f1dd)
N           -1.65399869830794        2.63082129731316        1.48584961571111
C           -1.58032396424320        1.25813495560486        0.89540093555968
C           -2.76586386781029        1.14384380572262       -0.09437516322975
C           -3.68170698595976       -0.04916461671623        0.11589557014507
C           -4.71344383274784       -0.22919610152199       -0.81606092427865
C           -5.59259801847547       -1.29224642310446       -0.73165896329642
O           -6.60698652870372       -1.53743320164900       -1.59284882046564
C           -6.78552294283081       -0.68674387410771       -2.69831231554822
C           -5.45725540427280       -2.22655449381029        0.32727848061458
O           -6.34678478590846       -3.24210455409462        0.32900768954767
C           -6.25412969551824       -4.21970412678097        1.33836162467827
C           -4.45184626820346       -2.03158571380539        1.25681849981114
C           -3.57645889287173       -0.95509840123884        1.15386632374995
C           -2.07283055886371        1.04171769841922       -1.47587781450300
C           -0.74349054424468        0.35856997080089       -1.18753520859003
C           -0.26635685894260        1.05099621297329        0.10178383807912
N            0.72165975495831        0.40824983820776        0.93823996462376
C            2.09876927294612        0.80907170864714        0.69876076131843
C            2.65968009392744        0.53758338585171       -0.71168827058954
C            4.16053598568855        0.59686393623734       -0.68018874810924
C            4.84150045835111        1.77219061795404       -0.93214997245981
C            6.22667632588417        1.82194904540630       -0.84458095511116
C            6.95312274487207        0.69475360541649       -0.49962031852756
O            8.30062032408932        0.63171672877806       -0.37611508895380
C            9.05495303086487        1.79948190967435       -0.59194639281208
C            6.26399409631368       -0.51783033885827       -0.24714468689109
O            7.04907607748695       -1.57581572678544        0.07344349900571
C            6.44290982311162       -2.82290165965097        0.30401361396604
C            4.88409390784940       -0.54464200226737       -0.33683177565021
C            0.57440018393104       -1.02704270977366        1.10612010126242
C           -3.52372329217979        2.49256391218119        0.06989539316079
C           -4.64171306060583        2.43849134169821        1.10883499770417
C           -2.41365072476612        3.44802220918349        0.51194348859314
H           -4.82466347463810        0.48625523765821       -1.61456628607834
H           -7.02244519478469        0.33634941601464       -2.38736978944841
H           -7.62943228562346       -1.09736661374106       -3.24890546396776
H           -5.90277770254319       -0.67732162698665       -3.34619644154934
H           -6.41634185849381       -3.78865839188237        2.33140486219583
H           -7.04395272955913       -4.93677665783420        1.12414905240210
H           -5.28593086055314       -4.72983770156541        1.31525977928126
H           -4.32761800387143       -2.71679729511055        2.07885525268661
H           -2.82273800386934       -0.87571321038672        1.92150066845183
H           -2.66593113902138        0.47183909209337       -2.18509019655788
H           -1.90064467996388        2.03346984371768       -1.89768981576626
H           -0.91061526927357       -0.70110048879777       -1.00465778495764
H           -0.03179939761660        0.46684238850919       -2.00201658827396
H           -1.61184968514366        0.53505536312392        1.70644401350163
H            0.13897916624017        2.03344866770789       -0.16922648751577
H            2.71150341582953        0.27496367421489        1.42726056909715
H            2.18824458490963        1.87808355950070        0.91877362686189
H            2.27089818533986        1.27573677092971       -1.41555606483279
H            2.34108812606522       -0.45267954366914       -1.04047411280768
H            4.29997745759080        2.66516650613710       -1.20753848741534
H            6.72989762689339        2.75231387453458       -1.05164009734600
H            8.77550279635431        2.59364368589599        0.10810605069024
H            8.94816553413469        2.16428420344868       -1.61856062313010
H           10.09087467801438        1.51452421088182       -0.41762606089366
H            7.25883892358251       -3.50988974474835        0.52061237714744
H            5.76312773611302       -2.78902733800161        1.16238240393947
H            5.89855298837935       -3.17574052744490       -0.57825013882839
H            4.34697130011285       -1.46099420204135       -0.14691880199927
H            0.95629908487866       -1.60727538338312        0.25936779681103
H           -0.47245159320476       -1.28541167848399        1.24776647201624
H            1.12569295024185       -1.32109236746272        1.99856307498363
H           -3.94927537234947        2.80766044064932       -0.88279657940350
H           -4.29785064629809        2.03650409012538        2.05959230137510
H           -5.44622966707440        1.79722137591602        0.76317888196944
H           -5.05032713079968        3.43300788169439        1.27171583921586
H           -0.71022752846572        2.98479338833546        1.65923544878720
H           -1.75664033442992        3.70225563059396       -0.32017214781580
H           -2.78748563816214        4.36560607012450        0.96559317965520
H           -2.17417791668070        2.60383868633818        2.36817618163046

 Bond Distances (Angstroems)
 ---------------------------
N1-C2=1.4961         N1-C33=1.4810        N1-H69=1.0228        N1-H72=1.0246        C2-N1=1.4961         C2-C3=1.5486         
C2-C16=1.5489        C2-H47=1.0870        C3-C2=1.5486         C3-C4=1.5186         C3-C14=1.5490        C3-C31=1.5558        
C4-C3=1.5186         C4-C5=1.4019         C4-C13=1.3817        C5-C4=1.4019         C5-C6=1.3821         C5-H34=1.0779        
C6-C5=1.3821         C6-O7=1.3531         C6-C9=1.4187         O7-C6=1.3531         O7-C8=1.4063         C8-O7=1.4063         
C8-H35=1.0952        C8-H36=1.0881        C8-H37=1.0950        C9-C6=1.4187         C9-O10=1.3500        C9-C12=1.3831        
O10-C9=1.3500        O10-C11=1.4082       C11-O10=1.4082       C11-H38=1.0946       C11-H39=1.0881       C11-H40=1.0946       
C12-C9=1.3831        C12-C13=1.3913       C12-H41=1.0774       C13-C4=1.3817        C13-C12=1.3913       C13-H42=1.0787       
C14-C3=1.5490        C14-C15=1.5222       C14-H43=1.0861       C14-H44=1.0914       C15-C14=1.5222       C15-C16=1.5393       
C15-H45=1.0882       C15-H46=1.0870       C16-C2=1.5489        C16-C15=1.5393       C16-N17=1.4453       C16-H48=1.0968       
N17-C16=1.4453       N17-C18=1.4541       N17-C30=1.4526       C18-N17=1.4541       C18-C19=1.5420       C18-H49=1.0915       
C18-H50=1.0951       C19-C18=1.5420       C19-C20=1.5024       C19-H51=1.0915       C19-H52=1.0910       C20-C19=1.5024       
C20-C21=1.3815       C20-C29=1.3944       C21-C20=1.3815       C21-C22=1.3888       C21-H53=1.0800       C22-C21=1.3888       
C22-C23=1.3847       C22-H54=1.0778       C23-C22=1.3847       C23-O24=1.3546       C23-C26=1.4174       O24-C23=1.3546       
O24-C25=1.4069       C25-O24=1.4069       C25-H55=1.0949       C25-H56=1.0947       C25-H57=1.0884       C26-C23=1.4174       
C26-O27=1.3559       C26-C29=1.3831       O27-C26=1.3559       O27-C28=1.4056       C28-O27=1.4056       C28-H58=1.0884       
C28-H59=1.0955       C28-H60=1.0951       C29-C20=1.3944       C29-C26=1.3831       C29-H61=1.0790       C30-N17=1.4526       
C30-H62=1.0952       C30-H63=1.0875       C30-H64=1.0894       C31-C3=1.5558        C31-C32=1.5272       C31-C33=1.5299       
C31-H65=1.0900       C32-C31=1.5272       C32-H66=1.0880       C32-H67=1.0853       C32-H68=1.0875       C33-N1=1.4810        
C33-C31=1.5299       C33-H70=1.0903       C33-H71=1.0897       H34-C5=1.0779        H35-C8=1.0952        H36-C8=1.0881        
H37-C8=1.0950        H38-C11=1.0946       H39-C11=1.0881       H40-C11=1.0946       H41-C12=1.0774       H42-C13=1.0787       
H43-C14=1.0861       H44-C14=1.0914       H45-C15=1.0882       H46-C15=1.0870       H47-C2=1.0870        H48-C16=1.0968       
H49-C18=1.0915       H50-C18=1.0951       H51-C19=1.0915       H52-C19=1.0910       H53-C21=1.0800       H54-C22=1.0778       
H55-C25=1.0949       H56-C25=1.0947       H57-C25=1.0884       H58-C28=1.0884       H59-C28=1.0955       H60-C28=1.0951       
H61-C29=1.0790       H62-C30=1.0952       H63-C30=1.0875       H64-C30=1.0894       H65-C31=1.0900       H66-C32=1.0880       
H67-C32=1.0853       H68-C32=1.0875       H69-N1=1.0228        H70-C33=1.0903       H71-C33=1.0897       H72-N1=1.0246        
 C  H  Rav=1.0890 sigma=0.0056  Rmin=1.0774  Rmax=1.0968    37
 C  C  Rav=1.4605 sigma=0.0726  Rmin=1.3815  Rmax=1.5558    23
 N  H  Rav=1.0237 sigma=0.0009  Rmin=1.0228  Rmax=1.0246     2
 N  C  Rav=1.4658 sigma=0.0194  Rmin=1.4453  Rmax=1.4961     5
 O  C  Rav=1.3801 sigma=0.0267  Rmin=1.3500  Rmax=1.4082     8

 selected bond angles (degree)
 --------------------
C33-N1-C2=105.78               H69-N1-C2=109.82               H69-N1-C33=113.19              H72-N1-C2=109.92               
H72-N1-C33=108.69              H72-N1-H69=109.37              C3-C2-N1=106.39                C16-C2-N1=111.51               
C16-C2-C3=108.18               H47-C2-N1=108.33               H47-C2-C3=113.93               H47-C2-C16=108.54              
C4-C3-C2=115.54                C14-C3-C2=103.44               C14-C3-C4=109.97               C31-C3-C2=103.97               
C31-C3-C4=111.88               C31-C3-C14=111.67              C5-C4-C3=116.91                C13-C4-C3=124.97               
C13-C4-C5=118.11               C6-C5-C4=121.76                H34-C5-C4=118.89               H34-C5-C6=119.35               
O7-C6-C5=125.27                C9-C6-C5=119.44                C9-C6-O7=115.29                C8-O7-C6=119.07                
H35-C8-O7=111.68               H36-C8-O7=105.54               H36-C8-H35=109.17              H37-C8-O7=111.59               
H37-C8-H35=109.53              H37-C8-H36=109.21              O10-C9-C6=115.69               C12-C9-C6=118.57               
C12-C9-O10=125.74              C11-O10-C9=118.67              

 selected dihedral angles (degree)
 ---------------------------------
C3-C2-N1-C33=336.88           C3-C2-N1-H69=214.41           C3-C2-N1-H72= 94.04           C16-C2-N1-C33= 94.63          
C16-C2-N1-H69=332.16          C16-C2-N1-H72=211.79          H47-C2-N1-C33=214.00          H47-C2-N1-H69= 91.53          
H47-C2-N1-H72=331.17          C4-C3-C2-N1=233.51            C4-C3-C2-C16=113.58           C4-C3-C2-H47=352.79           
C14-C3-C2-N1=113.29           C14-C3-C2-C16=353.36          C14-C3-C2-H47=232.57          C31-C3-C2-N1=356.50           
C31-C3-C2-C16=236.57          C31-C3-C2-H47=115.78          C5-C4-C3-C2=184.01            C5-C4-C3-C14=300.61           
C5-C4-C3-C31= 65.31           C13-C4-C3-C2=  4.43           C13-C4-C3-C14=121.02          C13-C4-C3-C31=245.73          
C6-C5-C4-C3=179.04            C6-C5-C4-C13=358.66           H34-C5-C4-C3=358.64           H34-C5-C4-C13=178.25          
O7-C6-C5-C4=180.32            O7-C6-C5-H34=  0.72           C9-C6-C5-C4=  0.30            C9-C6-C5-H34=180.71           
C8-O7-C6-C5=  2.13            C8-O7-C6-C9=182.14            H35-C8-O7-C6=296.88           H36-C8-O7-C6=178.37           
H37-C8-O7-C6= 59.85           O10-C9-C6-C5=180.67           O10-C9-C6-O7=  0.65           C12-C9-C6-C5=  0.79           
C12-C9-C6-O7=180.77           C11-O10-C9-C6=178.85          C11-O10-C9-C12=358.72         
           -------------------------------------------------
          |                Final Singlepoint                |
           -------------------------------------------------

          ...................................................
          :                      SETUP                      :
          :.................................................:
          :  # basis functions                 171          :
          :  # atomic orbitals                 171          :
          :  # shells                          105          :
          :  # electrons                       180          :
          :  max. iterations                   250          :
          :  Hamiltonian                  GFN2-xTB          :
          :  restarted?                      false          :
          :  GBSA solvation                  false          :
          :  PC potential                    false          :
          :  electronic temp.         5000.0000000     K    :
          :  accuracy                    1.0000000          :
          :  -> integral cutoff          0.2500000E+02      :
          :  -> integral neglect         0.1000000E-07      :
          :  -> SCF convergence          0.1000000E-05 Eh   :
          :  -> wf. convergence          0.1000000E-03 e    :
          :  Broyden damping             0.4000000          :
          ...................................................

 iter      E             dE          RMSdq      gap      omega  full diag
   1   -100.7740338 -0.100774E+03  0.615E-05    3.27       0.0  T
   2   -100.7740338 -0.720064E-10  0.358E-05    3.27     329.3  T
   3   -100.7740338 -0.342908E-10  0.214E-05    3.27     551.4  T

   *** convergence criteria satisfied after 3 iterations ***

         #    Occupation            Energy/Eh            Energy/eV
      -------------------------------------------------------------
         1        2.0000           -0.8573259             -23.3290
       ...           ...                  ...                  ...
        84        1.9995           -0.5007613             -13.6264
        85        1.9992           -0.4919796             -13.3874
        86        1.9981           -0.4785805             -13.0228
        87        1.9952           -0.4641367             -12.6298
        88        1.9916           -0.4553362             -12.3903
        89        1.9866           -0.4478984             -12.1879
        90        1.9490           -0.4264588             -11.6045 (HOMO)
        91        0.0383           -0.3064570              -8.3391 (LUMO)
        92        0.0291           -0.3020522              -8.2193
        93        0.0083           -0.2820645              -7.6754
        94        0.0067           -0.2786508              -7.5825
        95        0.0001           -0.2150708              -5.8524
       ...           ...                  ...                  ...
       171                          0.6103356              16.6081
      -------------------------------------------------------------
                  HL-Gap            0.1200018 Eh            3.2654 eV
             Fermi-level           -0.3687813 Eh          -10.0351 eV

 SCC (total)                   0 d,  0 h,  0 min,  0.119 sec
 SCC setup                      ...        0 min,  0.001 sec (  0.826%)
 Dispersion                     ...        0 min,  0.002 sec (  1.447%)
 classical contributions        ...        0 min,  0.000 sec (  0.412%)
 integral evaluation            ...        0 min,  0.020 sec ( 17.059%)
 iterations                     ...        0 min,  0.026 sec ( 21.884%)
 molecular gradient             ...        0 min,  0.069 sec ( 57.903%)
 printout                       ...        0 min,  0.001 sec (  0.455%)

         :::::::::::::::::::::::::::::::::::::::::::::::::::::
         ::                     SUMMARY                     ::
         :::::::::::::::::::::::::::::::::::::::::::::::::::::
         :: total energy             -99.441216314679 Eh    ::
         :: gradient norm              0.004056104940 Eh/a0 ::
         :: HOMO-LUMO gap              3.265415301656 eV    ::
         ::.................................................::
         :: SCC energy              -100.774033785240 Eh    ::
         :: -> isotropic ES            0.137512867798 Eh    ::
         :: -> anisotropic ES          0.007206005099 Eh    ::
         :: -> anisotropic XC          0.037776831179 Eh    ::
         :: -> dispersion             -0.076311342522 Eh    ::
         :: repulsion energy           1.331946727708 Eh    ::
         :: add. restraining           0.000000000000 Eh    ::
         :: total charge               0.999999999633 e     ::
         :::::::::::::::::::::::::::::::::::::::::::::::::::::

           -------------------------------------------------
          |                Property Printout                |
           -------------------------------------------------

    * Orbital Energies and Occupations

         #    Occupation            Energy/Eh            Energy/eV
      -------------------------------------------------------------
         1        2.0000           -0.8573259             -23.3290
       ...           ...                  ...                  ...
        78        1.9999           -0.5254612             -14.2985
        79        1.9999           -0.5209614             -14.1761
        80        1.9998           -0.5181288             -14.0990
        81        1.9998           -0.5130906             -13.9619
        82        1.9998           -0.5126377             -13.9496
        83        1.9997           -0.5067822             -13.7902
        84        1.9995           -0.5007613             -13.6264
        85        1.9992           -0.4919796             -13.3874
        86        1.9981           -0.4785805             -13.0228
        87        1.9952           -0.4641367             -12.6298
        88        1.9916           -0.4553362             -12.3903
        89        1.9866           -0.4478984             -12.1879
        90        1.9490           -0.4264588             -11.6045 (HOMO)
        91        0.0383           -0.3064570              -8.3391 (LUMO)
        92        0.0291           -0.3020522              -8.2193
        93        0.0083           -0.2820645              -7.6754
        94        0.0067           -0.2786508              -7.5825
        95        0.0001           -0.2150708              -5.8524
        96        0.0000           -0.1821293              -4.9560
        97        0.0000           -0.1624252              -4.4198
        98        0.0000           -0.1559851              -4.2446
        99        0.0000           -0.1331952              -3.6244
       100        0.0000           -0.1187119              -3.2303
       101                         -0.0986458              -2.6843
       ...                                ...                  ...
       171                          0.6103356              16.6081
      -------------------------------------------------------------
                  HL-Gap            0.1200018 Eh            3.2654 eV
             Fermi-level           -0.3687813 Eh          -10.0351 eV

     #   Z          covCN         q      C6AA      α(0)
     1   7 N        3.545    -0.046    22.118     6.985
     2   6 C        3.834    -0.002    20.585     6.455
     3   6 C        3.932     0.005    20.425     6.423
     4   6 C        2.967    -0.018    28.457     8.750
     5   6 C        2.924    -0.088    30.195     9.011
     6   6 C        2.863     0.126    25.231     8.233
     7   8 O        1.706    -0.240    17.980     5.725
     8   6 C        3.645     0.031    20.387     6.490
     9   6 C        2.865     0.127    25.204     8.229
    10   8 O        1.706    -0.238    17.936     5.718
    11   6 C        3.646     0.029    20.408     6.492
    12   6 C        2.915    -0.077    29.912     8.969
    13   6 C        2.920    -0.061    29.523     8.910
    14   6 C        3.830    -0.074    21.895     6.658
    15   6 C        3.823    -0.074    21.889     6.658
    16   6 C        3.815     0.034    19.989     6.363
    17   7 N        2.725    -0.186    25.019     7.429
    18   6 C        3.754    -0.000    20.642     6.478
    19   6 C        3.806    -0.068    21.795     6.646
    20   6 C        2.970    -0.007    28.189     8.709
    21   6 C        2.922    -0.054    29.350     8.884
    22   6 C        2.915    -0.072    29.799     8.951
    23   6 C        2.866     0.126    25.238     8.235
    24   8 O        1.706    -0.242    18.006     5.729
    25   6 C        3.645     0.032    20.371     6.487
    26   6 C        2.864     0.126    25.228     8.233
    27   8 O        1.706    -0.243    18.020     5.731
    28   6 C        3.645     0.034    20.342     6.482
    29   6 C        2.922    -0.082    30.061     8.991
    30   6 C        3.701    -0.042    21.496     6.630
    31   6 C        3.871    -0.029    21.041     6.522
    32   6 C        3.754    -0.124    22.936     6.829
    33   6 C        3.770    -0.029    21.126     6.550
    34   1 H        0.926     0.039     2.461     2.453
    35   1 H        0.924     0.042     2.423     2.434
    36   1 H        0.925     0.077     2.009     2.217
    37   1 H        0.924     0.044     2.402     2.424
    38   1 H        0.924     0.047     2.361     2.403
    39   1 H        0.925     0.077     2.015     2.220
    40   1 H        0.924     0.047     2.358     2.401
    41   1 H        0.926     0.048     2.348     2.396
    42   1 H        0.926     0.020     2.739     2.588
    43   1 H        0.925     0.067     2.117     2.275
    44   1 H        0.924     0.040     2.453     2.449
    45   1 H        0.925     0.059     2.207     2.323
    46   1 H        0.925     0.058     2.226     2.333
    47   1 H        0.925     0.092     1.856     2.130
    48   1 H        0.924     0.040     2.454     2.450
    49   1 H        0.924     0.054     2.273     2.358
    50   1 H        0.924     0.027     2.634     2.538
    51   1 H        0.924     0.030     2.582     2.513
    52   1 H        0.924     0.041     2.432     2.439
    53   1 H        0.926     0.030     2.586     2.515
    54   1 H        0.926     0.046     2.368     2.407
    55   1 H        0.924     0.044     2.392     2.418
    56   1 H        0.924     0.046     2.365     2.405
    57   1 H        0.925     0.073     2.054     2.241
    58   1 H        0.925     0.073     2.057     2.243
    59   1 H        0.924     0.041     2.441     2.443
    60   1 H        0.924     0.044     2.396     2.421
    61   1 H        0.926     0.039     2.466     2.456
    62   1 H        0.924     0.035     2.518     2.481
    63   1 H        0.925     0.042     2.420     2.433
    64   1 H        0.925     0.053     2.279     2.361
    65   1 H        0.925     0.076     2.024     2.225
    66   1 H        0.925     0.040     2.454     2.450
    67   1 H        0.925     0.074     2.043     2.235
    68   1 H        0.925     0.057     2.240     2.341
    69   1 H        0.859     0.240     0.921     1.504
    70   1 H        0.924     0.090     1.874     2.141
    71   1 H        0.925     0.090     1.880     2.144
    72   1 H        0.859     0.244     0.908     1.493

 Mol. C6AA /au·bohr⁶  :      46860.219722
 Mol. C8AA /au·bohr⁸  :    1066350.344123
 Mol. α(0) /au        :        330.287619


Wiberg/Mayer (AO) data.
largest (>0.10) Wiberg bond orders for each atom

 ---------------------------------------------------------------------------
     #   Z sym  total        # sym  WBO       # sym  WBO       # sym  WBO
 ---------------------------------------------------------------------------
     1   7 N    3.724 --    33 C    0.938    69 H    0.914    72 H    0.914
                             2 C    0.906
     2   6 C    3.896 --     3 C    0.968    16 C    0.967    47 H    0.946
                             1 N    0.906
     3   6 C    3.977 --     4 C    0.984    14 C    0.971     2 C    0.968
                            31 C    0.955
     4   6 C    3.950 --    13 C    1.440     5 C    1.342     3 C    0.984
     5   6 C    3.956 --     6 C    1.415     4 C    1.342    34 H    0.961
     6   6 C    3.920 --     5 C    1.415     9 C    1.230     7 O    1.085
     7   8 O    2.261 --     6 C    1.085     8 C    0.983
     8   6 C    3.940 --     7 O    0.983    36 H    0.977    37 H    0.976
                            35 H    0.975
     9   6 C    3.916 --    12 C    1.403     6 C    1.230    10 O    1.093
    10   8 O    2.265 --     9 C    1.093    11 C    0.980
    11   6 C    3.938 --    10 O    0.980    39 H    0.978    40 H    0.976
                            38 H    0.975
    12   6 C    3.962 --     9 C    1.403    13 C    1.385    41 H    0.965
    13   6 C    3.964 --     4 C    1.440    12 C    1.385    42 H    0.957
    14   6 C    3.990 --    15 C    1.008    44 H    0.974     3 C    0.971
                            43 H    0.971
    15   6 C    3.991 --    14 C    1.008    46 H    0.974    16 C    0.973
                            45 H    0.973
    16   6 C    3.983 --    17 N    1.014    15 C    0.973     2 C    0.967
                            48 H    0.956
    17   7 N    3.148 --    16 C    1.014    30 C    1.008    18 C    0.998
    18   6 C    3.975 --    17 N    0.998    19 C    0.976    50 H    0.973
                            49 H    0.970
    19   6 C    3.995 --    20 C    1.009    18 C    0.976    51 H    0.975
                            52 H    0.969
    20   6 C    3.968 --    21 C    1.431    29 C    1.369    19 C    1.009
    21   6 C    3.971 --    20 C    1.431    22 C    1.402    53 H    0.970
    22   6 C    3.972 --    23 C    1.402    21 C    1.402    54 H    0.965
    23   6 C    3.919 --    22 C    1.402    26 C    1.241    24 O    1.083
    24   8 O    2.249 --    23 C    1.083    25 C    0.982
    25   6 C    3.940 --    24 O    0.982    57 H    0.978    55 H    0.975
                            56 H    0.975
    26   6 C    3.921 --    29 C    1.410    23 C    1.241    27 O    1.080
    27   8 O    2.249 --    26 C    1.080    28 C    0.984
    28   6 C    3.942 --    27 O    0.984    58 H    0.978    59 H    0.975
                            60 H    0.975
    29   6 C    3.970 --    26 C    1.410    20 C    1.369    61 H    0.963
    30   6 C    3.980 --    17 N    1.008    64 H    0.980    63 H    0.977
                            62 H    0.972
    31   6 C    3.980 --    32 C    1.011    33 C    0.992    65 H    0.961
                             3 C    0.955
    32   6 C    3.989 --    31 C    1.011    68 H    0.982    66 H    0.982
                            67 H    0.978
    33   6 C    3.914 --    31 C    0.992    71 H    0.968    70 H    0.967
                             1 N    0.938
    34   1 H    0.998 --     5 C    0.961
    35   1 H    0.998 --     8 C    0.975
    36   1 H    0.994 --     8 C    0.977
    37   1 H    0.997 --     8 C    0.976
    38   1 H    0.997 --    11 C    0.975
    39   1 H    0.994 --    11 C    0.978
    40   1 H    0.997 --    11 C    0.976
    41   1 H    0.997 --    12 C    0.965
    42   1 H    0.999 --    13 C    0.957
    43   1 H    0.995 --    14 C    0.971
    44   1 H    0.998 --    14 C    0.974
    45   1 H    0.996 --    15 C    0.973
    46   1 H    0.996 --    15 C    0.974
    47   1 H    0.991 --     2 C    0.946
    48   1 H    0.998 --    16 C    0.956
    49   1 H    0.997 --    18 C    0.970
    50   1 H    0.999 --    18 C    0.973
    51   1 H    0.998 --    19 C    0.975
    52   1 H    0.997 --    19 C    0.969
    53   1 H    0.999 --    21 C    0.970
    54   1 H    0.997 --    22 C    0.965
    55   1 H    0.996 --    25 C    0.975
    56   1 H    0.996 --    25 C    0.975
    57   1 H    0.994 --    25 C    0.978
    58   1 H    0.994 --    28 C    0.978
    59   1 H    0.997 --    28 C    0.975
    60   1 H    0.997 --    28 C    0.975
    61   1 H    0.998 --    29 C    0.963
    62   1 H    0.998 --    30 C    0.972
    63   1 H    0.998 --    30 C    0.977
    64   1 H    0.997 --    30 C    0.980
    65   1 H    0.994 --    31 C    0.961
    66   1 H    0.998 --    32 C    0.982
    67   1 H    0.995 --    32 C    0.978
    68   1 H    0.996 --    32 C    0.982
    69   1 H    0.942 --     1 N    0.914
    70   1 H    0.992 --    33 C    0.967
    71   1 H    0.991 --    33 C    0.968
    72   1 H    0.940 --     1 N    0.914
 ---------------------------------------------------------------------------

Topologies differ in total number of bonds
Writing topology from bond orders to xtbtopo.mol

molecular dipole:
                 x           y           z       tot (Debye)
 q only:       -2.774       3.548       1.600
   full:       -2.549       3.818       1.712      12.453
molecular quadrupole (traceless):
                xx          xy          yy          xz          yz          zz
 q only:       16.299     -11.540       9.403      -7.162       4.312     -25.702
  q+dip:        6.448     -10.905      15.394      -9.887       3.843     -21.842
   full:        6.023     -11.566      15.022     -10.733       4.664     -21.045

           -------------------------------------------------
          |                Geometry Summary                 |
           -------------------------------------------------

      molecular mass/u    :      455.6105846
   center of mass at/Å    :       -0.0842419       0.0376378      -0.0543675
  moments of inertia/u·Å² :        0.1920585E+04   0.1193883E+05   0.1291426E+05
rotational constants/cm⁻¹ :        0.8777343E-02   0.1412000E-02   0.1305350E-02

 * 68 selected distances

     #   Z          #   Z                                           value/Å
     1   7 N        2   6 C                                       1.4961035
     4   6 C        5   6 C                                       1.4019399
     5   6 C        6   6 C                                       1.3820681
     6   6 C        7   8 O                                       1.3530517
     7   8 O        8   6 C                                       1.4062708
     6   6 C        9   6 C                                       1.4186607
     9   6 C       10   8 O                                       1.3500399
    10   8 O       11   6 C                                       1.4082193
     9   6 C       12   6 C                                       1.3830782
     4   6 C       13   6 C                                       1.3817296
    12   6 C       13   6 C                                       1.3913042
    14   6 C       15   6 C                                       1.5221621
    15   6 C       16   6 C                                       1.5393033 (max)
    16   6 C       17   7 N                                       1.4453231
    17   7 N       18   6 C                                       1.4541112
    20   6 C       21   6 C                                       1.3815174
    21   6 C       22   6 C                                       1.3888329
    22   6 C       23   6 C                                       1.3846632
    23   6 C       24   8 O                                       1.3546133
    24   8 O       25   6 C                                       1.4068678
    23   6 C       26   6 C                                       1.4173928
    26   6 C       27   8 O                                       1.3558997
    27   8 O       28   6 C                                       1.4056400
    20   6 C       29   6 C                                       1.3944412
    26   6 C       29   6 C                                       1.3830718
    17   7 N       30   6 C                                       1.4525613
    31   6 C       32   6 C                                       1.5271611
     1   7 N       33   6 C                                       1.4810071
    31   6 C       33   6 C                                       1.5298917
     5   6 C       34   1 H                                       1.0778921
     8   6 C       35   1 H                                       1.0952340
     8   6 C       36   1 H                                       1.0880933
     8   6 C       37   1 H                                       1.0950260
    11   6 C       38   1 H                                       1.0946453
    11   6 C       39   1 H                                       1.0880720
    11   6 C       40   1 H                                       1.0946137
    12   6 C       41   1 H                                       1.0773543
    13   6 C       42   1 H                                       1.0787307
    14   6 C       43   1 H                                       1.0860536
    14   6 C       44   1 H                                       1.0913963
    15   6 C       45   1 H                                       1.0882447
    15   6 C       46   1 H                                       1.0870176
     2   6 C       47   1 H                                       1.0870276
    16   6 C       48   1 H                                       1.0967939
    18   6 C       49   1 H                                       1.0915249
    18   6 C       50   1 H                                       1.0950790
    19   6 C       51   1 H                                       1.0915365
    19   6 C       52   1 H                                       1.0909729
    21   6 C       53   1 H                                       1.0800427
    22   6 C       54   1 H                                       1.0778145
    25   6 C       55   1 H                                       1.0949242
    25   6 C       56   1 H                                       1.0947243
    25   6 C       57   1 H                                       1.0884495
    28   6 C       58   1 H                                       1.0883971
    28   6 C       59   1 H                                       1.0954672
    28   6 C       60   1 H                                       1.0950841
    29   6 C       61   1 H                                       1.0790131
    30   6 C       62   1 H                                       1.0952198
    30   6 C       63   1 H                                       1.0875280
    30   6 C       64   1 H                                       1.0894235
    31   6 C       65   1 H                                       1.0899553
    32   6 C       66   1 H                                       1.0880141
    32   6 C       67   1 H                                       1.0853352
    32   6 C       68   1 H                                       1.0874553
     1   7 N       69   1 H                                       1.0227723 (min)
    33   6 C       70   1 H                                       1.0902816
    33   6 C       71   1 H                                       1.0897298
     1   7 N       72   1 H                                       1.0246047

 * 5 distinct bonds (by element types)

   Z      Z             #   av. dist./Å        max./Å        min./Å
   1 H    6 C          37     1.0889775     1.0967939     1.0773543
   6 C    6 C          16     1.4267011     1.5393033     1.3815174
   1 H    7 N           2     1.0236885     1.0246047     1.0227723
   6 C    7 N           5     1.4658213     1.4961035     1.4453231
   6 C    8 O           8     1.3800753     1.4082193     1.3500399


optimized geometry written to: xtbopt.xyz


           -------------------------------------------------
          | TOTAL ENERGY              -99.441216314679 Eh   |
          | GRADIENT NORM               0.004056104940 Eh/α |
          | HOMO-LUMO GAP               3.265415301656 eV   |
           -------------------------------------------------

------------------------------------------------------------------------
 * finished run on 2024/04/06 at 11:15:40.975     
------------------------------------------------------------------------
 total:
 * wall-time:     0 d,  0 h,  0 min,  0.950 sec
 *  cpu-time:     0 d,  0 h,  0 min,  0.922 sec
 * ratio c/w:     0.970 speedup
 SCF:
 * wall-time:     0 d,  0 h,  0 min,  0.120 sec
 *  cpu-time:     0 d,  0 h,  0 min,  0.120 sec
 * ratio c/w:     1.000 speedup
 ANC optimizer:
 * wall-time:     0 d,  0 h,  0 min,  0.783 sec
 *  cpu-time:     0 d,  0 h,  0 min,  0.776 sec
 * ratio c/w:     0.991 speedup

