25
 energy: 0.000000000000 xtb: 6.6.1 (8d0f1dd)
C            3.23720163006194        1.16630919979326        0.08434469647475
N            2.29877817382611        0.07527477071623        0.03981603040599
C            2.58028210190900       -1.21425402444508        0.03006176031096
N            1.43813958087363       -1.93419271955128        0.00098261760884
C            0.39035688448383       -1.05887472636071       -0.00790371836672
C            0.93510056364412        0.21347819449412        0.01709077491437
C            0.09450143893243        1.40504303904423       -0.00410947031874
O            0.49712751527797        2.54126714362870       -0.00342325688240
N           -1.25076640035757        1.06271879480407       -0.03085478223738
C           -2.21907211982101        2.15522099834493       -0.05001256985998
C           -1.81739487048744       -0.20012725993278       -0.04692818574614
O           -2.99983886758376       -0.37846417018721       -0.07008878229737
N           -0.92618586207120       -1.30210215599479       -0.03682761578324
C           -1.46982264913417       -2.64643102187190       -0.06029820460571
H            3.71247264356769        1.21471455160235        1.06488849150277
H            4.00791497605742        1.03430808813993       -0.67357694370751
H            2.69910007168542        2.09770118228144       -0.09130154882931
H            3.56654120610678       -1.63682992603973        0.04233140067262
H           -1.67107961066214        3.09322851271934       -0.02552706933167
H           -2.82428953597071        2.09428624779827       -0.95318082946668
H           -2.87644029173232        2.07745725625962        0.81450067533302
H           -1.17061996399332       -3.19584890659852        0.83242232437030
H           -1.14560257411436       -3.17511610292205       -0.95688275822323
H           -2.55549792440841       -2.55659984320617       -0.07459039797972
H            1.38130855184625       -2.94313852034425       -0.01389874181052
25
 energy: -5.260749170406 xtb: 6.6.1 (8d0f1dd)
C            3.24743896357290        1.18689600035912        0.08681657979232
N            2.31398560669512        0.10148604998924        0.03804553613643
C            2.60960769139818       -1.22537720407928        0.03046222426108
N            1.43972504925025       -1.93777417022022        0.00123461199241
C            0.40303664989129       -1.05979547820598       -0.00810522248634
C            0.93523385689805        0.22204159623043        0.01549398353230
C            0.10629275395082        1.39487365248011       -0.00508308788728
O            0.50094720232998        2.56158000829533       -0.00440267701897
N           -1.25436548567812        1.04657984626969       -0.03104188476426
C           -2.21673710210137        2.14067391131947       -0.04987625577517
C           -1.81594630552134       -0.20555215619902       -0.04724341490853
O           -3.01238300809575       -0.38789496279560       -0.07038034519074
N           -0.93007543121593       -1.30845147567149       -0.03709220050117
C           -1.49504091233443       -2.64578718794268       -0.06082435003441
H            3.72735586767238        1.23459292466201        1.06811084762039
H            4.01600865661865        1.05562651961178       -0.67650412618856
H            2.69929885129166        2.11096412170764       -0.08773951601165
H            3.58994278778252       -1.64708026745459        0.04328374153113
H           -1.65786086468270        3.07351533531999       -0.02545274631115
H           -2.82182466471450        2.08524864669212       -0.95430852161123
H           -2.87397956818537        2.06861242938081        0.81601980887329
H           -1.21089656565987       -3.20859178304181        0.83062259976104
H           -1.18570804048592       -3.18778948782753       -0.95690148090534
H           -2.57977244112276       -2.53817603970350       -0.07506868303487
H            1.37793112038249       -2.94139222700403       -0.01303152472344
25
 energy: -5.704228426992 xtb: 6.6.1 (8d0f1dd)
C            3.25859004358706        1.21225146703921        0.08934409833808
N            2.33111880533955        0.12558594435131        0.03482946381907
C            2.64094249866355       -1.22783617818728        0.03163944160830
N            1.45133659981497       -1.93432347744663        0.00244227384136
C            0.42013311065512       -1.06547492576506       -0.00838006863928
C            0.93876288635716        0.22704959306793        0.01317468159534
C            0.12229298741301        1.37683430812110       -0.00673985990309
O            0.49533447476565        2.56299160741058       -0.00652132422947
N           -1.25439140723097        1.02521734546326       -0.03147186391997
C           -2.21003375059622        2.11996657284675       -0.04973521208409
C           -1.80377144228826       -0.21697974325845       -0.04754896842853
O           -3.00623281199470       -0.40340575803660       -0.07054515472576
N           -0.92796203991642       -1.32134735673307       -0.03740017312694
C           -1.53820736950533       -2.64397602081170       -0.06177727186390
H            3.74890523227974        1.26641874525754        1.06790232598939
H            4.02719965250791        1.09609109240809       -0.67925230326049
H            2.70113881340149        2.13206972227913       -0.07890843322205
H            3.61832235197264       -1.64498220551361        0.04522474488220
H           -1.63805124085650        3.04567001905921       -0.02545432734900
H           -2.81550971999481        2.06878036584883       -0.95466771914898
H           -2.86717090165607        2.05235917368510        0.81708873327020
H           -1.28851472669036       -3.22885785964703        0.82844871968378
H           -1.26286611612387       -3.20776427548013       -0.95818421671764
H           -2.62080028522446       -2.49168685719443       -0.07582691382690
H            1.39164902325632       -2.93562269659199       -0.01064677643432
25
 energy: -3.254548917208 xtb: 6.6.1 (8d0f1dd)
C            3.26693719954078        1.24210908814940        0.09127043092734
N            2.35045407472475        0.14480023949634        0.03121883782268
C            2.67481086627461       -1.22253019601312        0.03352496090127
N            1.47898715969208       -1.93062291250383        0.00473100308963
C            0.44156767191398       -1.07992854109783       -0.00854083424360
C            0.94816053669379        0.22463593319882        0.01085434852807
C            0.14049528571924        1.36019575004834       -0.00880947149266
O            0.48913691731425        2.55737956097812       -0.00936971861930
N           -1.24795912192039        1.00351991690254       -0.03222135980419
C           -2.19984532116564        2.09562692159442       -0.04977316445922
C           -1.78400408230605       -0.23404871209676       -0.04789967378471
O           -2.98962565899297       -0.42159332380755       -0.07078423849736
N           -0.91822445636648       -1.34342258295154       -0.03767330818468
C           -1.59778474415172       -2.64270859658321       -0.06308653124715
H            3.76987233825115        1.30399461168245        1.06493109773673
H            4.03558928056278        1.15168265004562       -0.68339002670372
H            2.69893160713204        2.15890878082129       -0.06531013170463
H            3.65457414556812       -1.62990617419287        0.04782522700336
H           -1.61831605325613        3.01535522135288       -0.02581406012337
H           -2.80542433896321        2.04472602652591       -0.95466043388734
H           -2.85593835262218        2.02846232082977        0.81786984012996
H           -1.40107906930584       -3.25445203415119        0.82617533315598
H           -1.37463745271524       -3.23286298051607       -0.96075089072009
H           -2.67520374143967       -2.41796397980518       -0.07673964328602
H            1.43073997775414       -2.93232838573473       -0.00654369638970
25
 energy: 2.694300147679 xtb: 6.6.1 (8d0f1dd)
C            3.27137928040147        1.28284727130326        0.09323042356276
N            2.37267589819029        0.16634233202008        0.02608523045662
C            2.71591808079435       -1.20850105002884        0.03660141628095
N            1.52341562130334       -1.92497033327059        0.00861523450881
C            0.46658796781239       -1.10530173136376       -0.00868492535639
C            0.96029252598956        0.21545490036751        0.00773455178028
C            0.16284337168149        1.34218043576635       -0.01163993007255
O            0.47987738246711        2.54658727770408       -0.01301705669426
N           -1.23675038327587        0.97721399757508       -0.03339102534020
C           -2.17963793136033        2.07033181582267       -0.05000914509326
C           -1.75794178207467       -0.25867161971173       -0.04838125235802
O           -2.96769711731844       -0.43673711865674       -0.07109307686910
N           -0.90614740143610       -1.38323311216319       -0.03799077324799
C           -1.68065128991112       -2.65201895718891       -0.06496172646200
H            3.79206492724622        1.35122942862436        1.05899330303369
H            4.03771992778852        1.23063659256002       -0.69104535276794
H            2.68942358161632        2.19648816954313       -0.04335783891352
H            3.70288888729626       -1.59846545482398        0.05118967163154
H           -1.58079319625934        2.97916702374659       -0.02729053992337
H           -2.78582876208951        2.02413065535233       -0.95444169550870
H           -2.83387937071688        2.00922534297567        0.81919868332169
H           -1.55777121367268       -3.29457301288333        0.82127922960094
H           -1.52911308503017       -3.27267078393887       -0.96206651104663
H           -2.74596134952766       -2.33869575954048       -0.07873436803948
H            1.49930009802165       -2.92896770761867        0.00021136966340
25
 energy: 11.605552218453 xtb: 6.6.1 (8d0f1dd)
C            3.26952779311618        1.32562695006557        0.09473516998772
N            2.39250760318715        0.18472011260776        0.02083158394796
C            2.75436939434048       -1.18519441781254        0.04070470269300
N            1.57744910147113       -1.91737623601405        0.01356465963510
C            0.48768423002387       -1.13724483735650       -0.00895007903823
C            0.97316115181819        0.19965549705501        0.00444778432784
C            0.18664839304743        1.32798303041175       -0.01451821993383
O            0.47568994935898        2.53157889087387       -0.01617544032412
N           -1.21932354957057        0.95261488328471       -0.03481788489130
C           -2.15197665496647        2.04928726848910       -0.05051977174599
C           -1.73132664237800       -0.28451018309295       -0.04895377408750
O           -2.94593658613406       -0.43577474485397       -0.07137533774367
N           -0.89770321299050       -1.43542040396447       -0.03844157493664
C           -1.77253224539156       -2.67363293529105       -0.06716302696573
H            3.80947033467758        1.39645056353151        1.05071161079022
H            4.02940454645378        1.31583421249827       -0.70128868229073
H            2.67254645833349        2.23562951354666       -0.01678090023710
H            3.75303611590353       -1.55170065018408        0.05443708115776
H           -1.53567213322186        2.94665298860434       -0.02996718859910
H           -2.75907031409834        2.00985146285541       -0.95400690861504
H           -2.80352216328535        1.99746279164915        0.82070976254255
H           -1.72831849977944       -3.33830158046026        0.81391556216507
H           -1.69656070163846       -3.31674776828123       -0.96121128694770
H           -2.81711635083785       -2.28356386561335       -0.08145242855944
H            1.58977865049687       -2.92485194037656        0.00859848381623
25
 energy: 21.895649594349 xtb: 6.6.1 (8d0f1dd)
C            3.26354588557732        1.36036461672441        0.09513335473893
N            2.40864042855393        0.19439761083969        0.01796943014809
C            2.78295434917463       -1.15093585192321        0.04609682584341
N            1.63638589080137       -1.90773954548050        0.01883983546952
C            0.50274044047747       -1.16900642722618       -0.00948426558774
C            0.98945263672000        0.17944306409329        0.00191309022148
C            0.21123663146199        1.32304158700808       -0.01645573966531
O            0.48963188862340        2.51568801282205       -0.01718028420483
N           -1.19017528611534        0.93514309515464       -0.03623535387307
C           -2.12459755365556        2.02957784554486       -0.05133258382249
C           -1.70540533459477       -0.30665030646265       -0.04955362804616
O           -2.92347758306811       -0.41559945285017       -0.07147106325769
N           -0.89328573024292       -1.48977250945093       -0.03920388577885
C           -1.86430781203420       -2.70067711982041       -0.06963496908660
H            3.81851622727014        1.42809304506405        1.04133192657205
H            4.01104674860379        1.38518613254728       -0.71186243264656
H            2.65247327912043        2.26450640229988        0.00758504213591
H            3.79647404444472       -1.49064987782052        0.05699332095720
H           -1.51115833230854        2.92676516784998       -0.03325312292759
H           -2.73214637076336        1.98857259163621       -0.95331859403898
H           -2.77263092641292        1.97856694219530        0.82138836048010
H           -1.89196178884777       -3.37005426758802        0.80473555522417
H           -1.85808001845212       -3.34967962920072       -0.95908255217324
H           -2.87910720408976       -2.25178516577871       -0.08382413224018
H            1.69545015769236       -2.91776735800560        0.01693976170577
25
 energy: 33.281338254665 xtb: 6.6.1 (8d0f1dd)
C            3.26334990360578        1.38484183469930        0.09462884773283
N            2.42554274201095        0.20344070456472        0.01929678199797
C            2.80954290628631       -1.11747939005628        0.05180997469762
N            1.68772574669494       -1.90139540420319        0.02287551142032
C            0.52211513653780       -1.18880049855569       -0.00979687016484
C            1.00902999793902        0.16702579199336        0.00090987435991
C            0.23361673501630        1.31858911458207       -0.01688228701629
O            0.52075692139847        2.50928373503767       -0.01555874365272
N           -1.15422241217495        0.91919987500796       -0.03721254052833
C           -2.10884890248259        1.99976267834789       -0.05214913435648
C           -1.67890897323064       -0.32438006448759       -0.05010703527881
O           -2.89764321480520       -0.40650071825847       -0.07137820295799
N           -0.88478991606138       -1.52394097665632       -0.04003051207896
C           -1.94533941668669       -2.70995905888070       -0.07212728169886
H            3.82578329526037        1.44789284665118        1.03484478145894
H            3.99716612076607        1.42543149948623       -0.72069788240057
H            2.63754423451914        2.27864192731482        0.02162261241206
H            3.83327601545284       -1.43468875786983        0.05945211000856
H           -1.52506727735251        2.91483693233236       -0.03543328406018
H           -2.71611765855893        1.94149585490989       -0.95311322335671
H           -2.75415645449706        1.93182949933617        0.82097329058512
H           -2.03695682420743       -3.38504787984455        0.79888217892101
H           -2.00281594780763       -3.36493878131730       -0.96120313285606
H           -2.93415244733961       -2.18791298721504       -0.08518954371199
H            1.78578435765285       -2.90819917474656        0.02261760667171
25
 energy: 38.239784015447 xtb: 6.6.1 (8d0f1dd)
C            3.26877130110364        1.38627202729870        0.09231916038631
N            2.43149346163845        0.20502617476772        0.02479674962810
C            2.81482105171461       -1.09357904259531        0.05699948393043
N            1.71007065628725       -1.89692664803563        0.02415436693065
C            0.52967587518732       -1.18923042789405       -0.00992473739407
C            1.02139308701512        0.16636876221544        0.00184523176376
C            0.23882858013820        1.32316781244337       -0.01498459255888
O            0.55206367062964        2.51232562611497       -0.01055655329534
N           -1.12546247220667        0.91949059989633       -0.03721828800764
C           -2.10713979020143        1.98242558456831       -0.05263014847054
C           -1.66634298617572       -0.32445458051991       -0.05020194378976
O           -2.88428282635023       -0.38193989183238       -0.07085726771437
N           -0.88597454662751       -1.53027290504015       -0.04076525903746
C           -1.98656761631529       -2.71443548441255       -0.07410480365543
H            3.82961478739672        1.44503639695439        1.03134921851632
H            3.99403825993797        1.41708838719359       -0.72406144133347
H            2.64074386644350        2.27395073024730        0.01940358189810
H            3.84266538817989       -1.40160778754709        0.06158288309107
H           -1.56239966964534        2.92295601891562       -0.03569980860983
H           -2.71332753230415        1.89814026156743       -0.95333429580003
H           -2.75175306280310        1.88724525550160        0.81952741154483
H           -2.09440430766757       -3.37567135998369        0.79244622116754
H           -2.06180142575221       -3.35452869228075       -0.96074551716090
H           -2.95201503015657       -2.19057258921007       -0.08567259161331
H            1.82950594846971       -2.89724562616109        0.02336683573124
25
 energy: 45.109074489255 xtb: 6.6.1 (8d0f1dd)
C            3.27759819034051        1.40039914104594        0.09146535535120
N            2.44206578473831        0.21837869316609        0.02756370455029
C            2.83556392706028       -1.08636574234931        0.06032286691142
N            1.72845316467175       -1.89655007457765        0.02505211542519
C            0.54589108081024       -1.19209008618565       -0.00967074609046
C            1.02865934989323        0.16924732712372        0.00225895916718
C            0.24258972986061        1.31582191713837       -0.01401238475659
O            0.56238715201406        2.51268349089910       -0.00821260309465
N           -1.11454160783320        0.91099259336902       -0.03730119807760
C           -2.10539959076391        1.96518860367818       -0.05290946185360
C           -1.65305622182089       -0.33149977079081       -0.05025782484119
O           -2.87281158902176       -0.38575520779507       -0.07074917174441
N           -0.88102873530014       -1.53635226391678       -0.04113748991236
C           -2.02582846180302       -2.71435453774530       -0.07574622169428
H            3.84308696992493        1.46158852583062        1.02924292783056
H            4.00236860492361        1.43340968709197       -0.72864500709265
H            2.64371157789400        2.28501444914599        0.02123206604409
H            3.86432556320456       -1.38801259016412        0.06442083491478
H           -1.57234042598306        2.91325985854684       -0.03527877380614
H           -2.71020787084488        1.86843143137086       -0.95391329367173
H           -2.74973752801224        1.85662033001625        0.81869525505476
H           -2.16377872372238       -3.38757479533620        0.79100829618808
H           -2.13082123536415       -3.36439371961536       -0.96450630350543
H           -2.98261357635928       -2.14552976253527       -0.08652345393801
H            1.85767913942908       -2.89352889523931        0.02463544878881
25
 energy: 43.495655974396 xtb: 6.6.1 (8d0f1dd)
C            3.28317590329022        1.39686548958987        0.09061796206589
N            2.44029884931033        0.22055603878062        0.03037553286269
C            2.83329804796477       -1.09022426788305        0.06055155610372
N            1.72082647809533       -1.89568125972294        0.02386028061078
C            0.54593890853879       -1.18504433731290       -0.00942495711620
C            1.02649651206204        0.17493483814951        0.00364400105717
C            0.23363637957616        1.31768646099681       -0.01229458593875
O            0.55871008726009        2.51458918291774       -0.00626995162836
N           -1.12050006295893        0.91564796038451       -0.03675663335056
C           -2.11026256844651        1.97050114981984       -0.05286077154579
C           -1.65645856683507       -0.32954002137412       -0.04989174655241
O           -2.87624486508066       -0.38748355879275       -0.07057013653422
N           -0.88367964506339       -1.52892750678436       -0.04123210204134
C           -2.02083235198031       -2.71861796652391       -0.07605867052382
H            3.84671588891791        1.46031018415857        1.02996230957012
H            4.01230235393379        1.42019804024064       -0.72689251729824
H            2.65523249279274        2.28512024830005        0.01410574409126
H            3.85978734241729       -1.39600356942884        0.06450451665838
H           -1.57579485566416        2.91654510572185       -0.03409632246235
H           -2.71387703436897        1.87395086241622       -0.95418513306649
H           -2.75548842212088        1.86143691558543        0.81760928728701
H           -2.14512049257679       -3.38854610491973        0.79029810729439
H           -2.11282293378317       -3.36444162099386       -0.96449081944052
H           -2.97812831927266       -2.16224463088293       -0.08626180005587
H            1.84500554192825       -2.89255903027015        0.02279074610079
25
 energy: 46.014829057881 xtb: 6.6.1 (8d0f1dd)
C            3.29297271512353        1.40031221247873        0.08926141105466
N            2.44238801397393        0.22843389120410        0.03613881529119
C            2.83783240170954       -1.08621915319341        0.06223701114392
N            1.72301316589708       -1.89037765892349        0.02286990580991
C            0.55176398863786       -1.17955164936756       -0.00883552408514
C            1.02828708567898        0.18036726670932        0.00626194816150
C            0.22590837267674        1.31955770119601       -0.00918096630168
O            0.55821827276903        2.51485628805211       -0.00236050257395
N           -1.12131584431336        0.91828068100547       -0.03594694857210
C           -2.11262099638239        1.97184518473124       -0.05299450424561
C           -1.65429589664924       -0.33245397594909       -0.04933016839684
O           -2.87552421919578       -0.38590724661794       -0.07020441997459
N           -0.88607039972243       -1.52877787608944       -0.04156447219175
C           -2.03825478296178       -2.73386227178907       -0.07736845626693
H            3.85535376766392        1.46791611054899        1.02954884546375
H            4.02706829428754        1.41166852149022       -0.72530096516550
H            2.67299857136675        2.29354007370722        0.00451507933746
H            3.86416488145319       -1.39151595310655        0.06431476931805
H           -1.57871387280180        2.91708291737127       -0.03273976064615
H           -2.71455219174005        1.87455780467736       -0.95490820183000
H           -2.75919022864110        1.86113403752568        0.81586679136380
H           -2.16003252688312       -3.40190734261898        0.78784205891567
H           -2.12865358978002       -3.37603115073834       -0.96582714069806
H           -2.98903967215176       -2.17626187219580       -0.08628399574526
H            1.85050935792096       -2.88765793793596        0.02102328698093
25
 energy: 50.514423320556 xtb: 6.6.1 (8d0f1dd)
C            3.30298865185533        1.40680515522664        0.08833328111629
N            2.44671712940033        0.23780946137288        0.04236399754778
C            2.84520398430982       -1.07836672159122        0.06351948503770
N            1.73074929806355       -1.88305649550639        0.02189190615163
C            0.56014309488013       -1.17542960713031       -0.00810329870277
C            1.03265660178191        0.18482598708483        0.00922575971989
C            0.22243893037640        1.32183814390428       -0.00618182729701
O            0.55780270699081        2.51542994282883        0.00139785374115
N           -1.12017664121862        0.91780686068255       -0.03516708046666
C           -2.11290593501741        1.97042558544704       -0.05307140662636
C           -1.64970535451506       -0.33942147945646       -0.04883701426812
O           -2.87151571343976       -0.39041886204989       -0.06983541261677
N           -0.88566374619010       -1.53190172769454       -0.04185980089166
C           -2.06576498167622       -2.75178353607473       -0.07868622674697
H            3.86250060083205        1.47915125892411        1.03009362282895
H            4.04185727248494        1.40610225505161       -0.72262402324053
H            2.69072566463088        2.30454682424358       -0.00632771480810
H            3.87238641268115       -1.38076115326204        0.06291336520205
H           -1.57890697398893        2.91539072685619       -0.03152833398597
H           -2.71348510505314        1.87469169295197       -0.95581970541326
H           -2.76084805834576        1.86040444300713        0.81459270992915
H           -2.19003871903887       -3.41973552635883        0.78533186230767
H           -2.15954108347186       -3.39208028486113       -0.96737005475598
H           -3.00854567859171       -2.18291560216800       -0.08621944100531
H            1.86314231019638       -2.88032873925597        0.01900139339051
25
 energy: 61.040128228250 xtb: 6.6.1 (8d0f1dd)
C            3.32051385091727        1.42213307604262        0.08745126520649
N            2.45728235721230        0.25622371961516        0.05312710418832
C            2.86195402725589       -1.06018789540000        0.06480701227462
N            1.75113338761510       -1.86832339864962        0.01986727999881
C            0.57775513321840       -1.16928696449467       -0.00691745183958
C            1.04334156305614        0.19268167707271        0.01449311442216
C            0.22382282920831        1.32676005669653       -0.00155776527133
O            0.55880456013368        2.51841259151030        0.00691983750677
N           -1.11381152415934        0.91419182909064       -0.03395288801240
C           -2.11016725468236        1.96391391483313       -0.05304242209994
C           -1.63802174147152       -0.35300780014180       -0.04812308874020
O           -2.86074807669512       -0.39816616745303       -0.06913904679865
N           -0.88137664258122       -1.53973221608864       -0.04241661812799
C           -2.12826251719885       -2.78784566972609       -0.08077805605734
H            3.87265381230582        1.50394655615384        1.03298002367912
H            4.06826019513366        1.40205281288413       -0.71649894271675
H            2.71948013172074        2.32616071751551       -0.02593700489166
H            3.89161865114551       -1.35504847470513        0.05911469973531
H           -1.57739499117292        2.91007198361754       -0.02959471500862
H           -2.70884294094253        1.87134289180912       -0.95738798196971
H           -2.76009571058024        1.85552255486406        0.81324988446413
H           -2.26167571066651       -3.45718180690064        0.78154160193790
H           -2.23240748138258       -3.42658045401540       -0.97014230762200
H           -3.05426353445655       -2.19410831107589       -0.08601697054353
H            1.89266229500315       -2.86491662088222        0.01498733243339
25
 energy: 75.887171965285 xtb: 6.6.1 (8d0f1dd)
C            3.35544406790163        1.45066600667402        0.08583002840759
N            2.47917904790346        0.29148422285404        0.07352182985674
C            2.89567077322437       -1.02528641719239        0.06721989369838
N            1.79070526614826       -1.84024957893716        0.01571697830003
C            0.61562887968012       -1.15311809084106       -0.00558823049079
C            1.06676499867689        0.21088828762646        0.02387028571376
C            0.22433302835343        1.33798372594513        0.00680688004621
O            0.56455014132532        2.52627455563014        0.01656702947851
N           -1.09793140841182        0.91099969203466       -0.03178902556448
C           -2.10639052486679        1.95132320301791       -0.05299402534387
C           -1.61132728623686       -0.37712525466485       -0.04701800309087
O           -2.83531667771482       -0.41119212985732       -0.06761334094804
N           -0.86881010355616       -1.55015600277432       -0.04436667884416
C           -2.25579081150702       -2.85958181468152       -0.08470210408686
H            3.89417255040539        1.54834652606454        1.03827320948303
H            4.11855711487854        1.39456798843011       -0.70650019257415
H            2.77236097487205        2.36466939555371       -0.06002817109764
H            3.92878328628331       -1.30782483122443        0.05318404362726
H           -1.58368795551638        2.90360012390185       -0.02606641662345
H           -2.70158734157585        1.85810420840140       -0.95956702787224
H           -2.75965759702217        1.83927265965132        0.81028900108590
H           -2.40111509071441       -3.52801874041387        0.77373664889073
H           -2.37389166351949       -3.49246049973054       -0.97395792522076
H           -3.14600432426794       -2.21940853942154       -0.08571091884132
H            1.94757532319322       -2.83473009387417        0.00792012815781
25