72
 energy: -99.189559012221 gnorm: 1.060516782625 xtb: 6.6.1 (8d0f1dd)
N           -1.58793112961997        3.09742461108660        1.45355200949266
C           -1.66386562510069        2.11599849030880        0.68206742301626
C           -2.87704588599993        1.77459435299956       -0.13927347290719
C           -3.40282819173915        0.40859536113545        0.27008083018971
C           -4.36888948915787       -0.22541110926845       -0.51341472363723
C           -4.88602991880531       -1.46219766304812       -0.16689906422444
O           -5.82186983345810       -2.13860859603491       -0.86533937078911
C           -6.41168256021906       -1.53310554757446       -1.99138789470034
C           -4.42115815609652       -2.11065718406045        1.00890360578454
O           -4.96700091126268       -3.31800226746400        1.26002844054628
C           -4.60796162568146       -4.00024870796263        2.43840622924801
C           -3.47291399201774       -1.47036725010044        1.79026952670752
C           -2.97363064288522       -0.22574208546986        1.42597357617476
C           -2.40295409012942        1.74554698309960       -1.61768518265631
C           -1.57524193029687        0.51010100571421       -2.02328782128602
C           -0.18554479231591        0.54709178962822       -1.49972680448349
N            0.44018313328906       -0.43489469575969       -0.85296815045913
C            1.71465812005118       -0.37534649861301       -0.46056921865256
C            2.59640419406081        0.78984469308037       -0.75691818493474
C            4.02107814737425        0.57360701592791       -0.33734621735457
C            4.67842118308124        1.71100437177223        0.39638809569938
C            6.10864924236499        1.41061325932126        0.75351337369836
C            6.73571907872299        0.24974046431771        0.44650724655216
O            8.01206098248263       -0.06832174179044        0.74202048624746
C            8.81044169478788        0.88119439422272        1.41130657612512
C            6.02558450487528       -0.78636978992240       -0.26289123610151
O            6.73392134150565       -1.88985620640072       -0.50888386216530
C            6.14170303836798       -2.97563200081974       -1.18318214756162
C            4.68816583213453       -0.57601167990490       -0.63442756465333
C           -0.30193862714779       -1.64167264416815       -0.52338382592598
C           -4.03686075906983        2.80196914552097        0.02056282215524
C           -4.56751525882669        2.82695624899170        1.45214340851362
C           -3.65522281493139        4.21471333201193       -0.41233477811532
H           -4.72912573675477        0.26293448340756       -1.40327922895707
H           -6.90298195886997       -0.59136735886446       -1.72856894491664
H           -7.15791322020854       -2.24121489389249       -2.34618271860883
H           -5.67828343260825       -1.35522579184772       -2.78490555809032
H           -4.86101526336268       -3.41998132459718        3.33047023071778
H           -5.18752325136778       -4.92106554863922        2.43071461024162
H           -3.54112266252646       -4.24455846065539        2.45188423158146
H           -3.11899570964529       -1.92714591419475        2.70017340546998
H           -2.25982666779562        0.25513703322681        2.07703070951842
H           -3.28183462226901        1.78773961297879       -2.26076468098520
H           -1.81281681932810        2.64217114315667       -1.81152859582103
H           -2.10427893036427       -0.39317455017419       -1.72829381378583
H           -1.52415268952265        0.52041322781075       -3.11952605044244
H           -0.82506162234793        1.42703571182139        0.49225058011026
H            0.39094164632048        1.42311197481262       -1.74220181758236
H            2.10297757197212       -1.19414534636690        0.11485468809937
H            4.28953875734205        1.92566687686657        0.99307606267476
H            2.20905340410934        1.69653122942254       -0.27218082563316
H            2.57838740600165        0.98881653687073       -1.83982494346074
H            4.72606851328972        2.54946151882388       -0.34110989821337
H            6.62066509554859        2.19426220615910        1.28810064237474
H            8.40612464301846        1.11696103221258        2.39947960617469
H            8.90998981279699        1.80018833950864        0.82770682608651
H            9.78740780571903        0.41571937435618        1.52156140331842
H            6.91361759865230       -3.74096918566957       -1.23682256497137
H            5.28121980702586       -3.36709959450061       -0.63320023112351
H            5.83473669973636       -2.69929605676392       -2.19611410601817
H            4.17134287873668       -1.34914789907632       -1.18254247811650
H           -0.60886280779598       -2.15497072467696       -1.43492670159128
H           -1.18914639769749       -1.39335952905519        0.06283993137986
H            0.32531983433150       -2.31285818159307        0.05857555436600
H           -4.84757913875704        2.45567206158936       -0.63090601771305
H           -3.79942982693819        3.18993755507229        2.12743624494430
H           -4.88179639849652        1.83656315437329        1.77256908080042
H           -5.42376657340977        3.49347649814743        1.51209610630890
H           -2.82366284618593        4.57826760782546        0.18313962045497
H           -3.38998338329980        4.25880758844810       -1.46514599864721
H           -4.50260621784023        4.87675672323820       -0.25408076193379
H           -0.70801395853232        3.24753854224176        1.93760711500843
72
 energy: -99.350914606793 gnorm: 0.047592003176 xtb: 6.6.1 (8d0f1dd)
N           -1.58796918725946        3.09746629645721        1.45356859034149
C           -1.66388381749617        2.11601664116175        0.68209384382867
C           -2.87707080740046        1.77457533793918       -0.13929489472272
C           -3.40281994206220        0.40859108046354        0.27008951150166
C           -4.36891888467046       -0.22542589512235       -0.51341554958283
C           -4.88603818717298       -1.46220615528316       -0.16688361460970
O           -5.82185264396679       -2.13866467607588       -0.86538783422479
C           -6.41167925036093       -1.53309796745435       -1.99141378576810
C           -4.42116551992988       -2.11064763159052        1.00893407680875
O           -4.96702123393405       -3.31800999370090        1.26000395669700
C           -4.60798014457797       -4.00021406030172        2.43842564964061
C           -3.47290648334565       -1.47036674273915        1.79031050950196
C           -2.97363760661027       -0.22573430200212        1.42601215440242
C           -2.40295538889220        1.74558592743583       -1.61770228695521
C           -1.57522327575795        0.51006605449538       -2.02327023807698
C           -0.18549291150640        0.54710008609443       -1.49961442258513
N            0.44021919184673       -0.43488692517806       -0.85284408133153
C            1.71459991733151       -0.37527322169921       -0.46026391778390
C            2.59684471402841        0.78947621728901       -0.75760521901900
C            4.02535250725127        0.56594239479701       -0.35384953558442
C            4.73589265350855        1.68472457675907        0.30446721944495
C            6.12242124523638        1.40719899128432        0.74222400178257
C            6.74071372038276        0.24607942028714        0.44547226762512
O            8.01458431136566       -0.07068953324653        0.74306121659344
C            8.81081262764376        0.88104393288613        1.41143507243969
C            6.02673597249666       -0.78756149082463       -0.26400111977852
O            6.73457897229951       -1.89087059089109       -0.50884034812735
C            6.14180093786667       -2.97598335352296       -1.18341507276067
C            4.68901370061610       -0.58180534737631       -0.63748359373378
C           -0.30191952638019       -1.64169575799477       -0.52338139744649
C           -4.03689613702089        2.80195349423794        0.02055346964373
C           -4.56755511760449        2.82696015173601        1.45212667092171
C           -3.65525247721328        4.21474971830468       -0.41234407004850
H           -4.72912701170183        0.26292853606618       -1.40333563975476
H           -6.90295876522508       -0.59136081850230       -1.72860186378655
H           -7.15791123983411       -2.24123746433504       -2.34616274667620
H           -5.67828377431394       -1.35529417298893       -2.78487837607455
H           -4.86103274427226       -3.41990888298895        3.33054452461622
H           -5.18760055198957       -4.92107270739367        2.43074481649335
H           -3.54104023439422       -4.24456548777552        2.45189902833360
H           -3.11899305987944       -1.92713061533360        2.70022026600641
H           -2.25980296907729        0.25516705975286        2.07706840734314
H           -3.28178678537990        1.78776595516800       -2.26076875223491
H           -1.81282332498634        2.64215691365223       -1.81150832924703
H           -2.10427116818233       -0.39316290599743       -1.72825855179853
H           -1.52415778702533        0.52040807213425       -3.11958139932744
H           -0.82504713766455        1.42703021891467        0.49224087561521
H            0.39096418771297        1.42311351699260       -1.74215526652671
H            2.10297846690163       -1.19410097531592        0.11468240682595
H            4.19204958648832        1.97775951988044        1.14397807640946
H            2.21014577559710        1.69651354619301       -0.27230198346515
H            2.57761280358119        0.98849664714664       -1.84016435332458
H            4.73722889047183        2.55357276455029       -0.36609168588025
H            6.62036167047542        2.19351479876085        1.28750390833733
H            8.40608510716059        1.11694847875060        2.39970832439963
H            8.90996913530080        1.80029298174546        0.82744768497753
H            9.78769025531613        0.41571783860506        1.52179257520196
H            6.91361078818946       -3.74119336265126       -1.23700863075931
H            5.28119433064293       -3.36724580092969       -0.63309578220484
H            5.83482891559250       -2.69923920073592       -2.19623560077699
H            4.17105397814469       -1.35225140317704       -1.18329425817890
H           -0.60882314586563       -2.15483341111299       -1.43476056399503
H           -1.18900772414444       -1.39343381064225        0.06276455097644
H            0.32519501908169       -2.31275647506007        0.05843176085091
H           -4.84763113868924        2.45564622763468       -0.63093429857505
H           -3.79944478391471        3.18997514786276        2.12745562908392
H           -4.88181825776633        1.83653527869871        1.77257516355156
H           -5.42383389389143        3.49348615036214        1.51207650252042
H           -2.82371165971444        4.57829146092172        0.18315011033936
H           -3.39001634498461        4.25883752391571       -1.46518038645582
H           -4.50264695372996        4.87676636081890       -0.25412237153757
H           -0.70801478572818        3.24760534236752        1.93765384222554
72
 energy: -99.352671506689 gnorm: 0.034290012333 xtb: 6.6.1 (8d0f1dd)
N           -1.58898315835843        3.09829491124005        1.45398116811952
C           -1.66444182200280        2.11664268948131        0.68263926129769
C           -2.87735560235737        1.77479271431640       -0.13910106944003
C           -3.40289842475992        0.40869241442468        0.27028905764556
C           -4.36869100543628       -0.22566429637641       -0.51343980178211
C           -4.88591349264628       -1.46232851259980       -0.16664207991010
O           -5.82143986211744       -2.13914415374188       -0.86532147438431
C           -6.41119516867983       -1.53380870451604       -1.99152781599865
C           -4.42113281147412       -2.11049612704192        1.00936699860414
O           -4.96719432500475       -3.31775477605765        1.26068012947215
C           -4.60827245410553       -3.99959850056693        2.43936307413324
C           -3.47314093988041       -1.46996591701664        1.79090606962680
C           -2.97383018219718       -0.22538260917540        1.42641763019992
C           -2.40232218839872        1.74576233628909       -1.61724733510012
C           -1.57388470395274        0.51041450268169       -2.02231961283612
C           -0.18376265195033        0.54782837729329       -1.49914978970842
N            0.44270302564960       -0.43408147282752       -0.85299135536548
C            1.71832559888654       -0.37551212218418       -0.46360759148574
C            2.60091083310500        0.78871078427881       -0.76352956321288
C            4.02860132146605        0.57025939078123       -0.35719428821267
C            4.72244378441701        1.69821818551230        0.31667986436719
C            6.12009277977521        1.41196881596925        0.73110618828609
C            6.74452081094055        0.24599009136889        0.43532204252653
O            8.01578901982038       -0.07750432008559        0.74547031068778
C            8.81142368989945        0.87547483961436        1.41374789285452
C            6.03199754529456       -0.78952947135151       -0.27294012828597
O            6.73882460606298       -1.89545146326823       -0.51352031525813
C            6.14469955388683       -2.98107832888383       -1.18644668125387
C            4.69257135002460       -0.58499548246681       -0.64195993542139
C           -0.29981719031279       -1.64070970085341       -0.52335681182103
C           -4.03763214313895        2.80187435439970        0.02019595341439
C           -4.56864786088026        2.82703423722314        1.45166852752076
C           -3.65648782085579        4.21485649087298       -0.41284092362865
H           -4.72865480903168        0.26242228900551       -1.40367272234003
H           -6.90210749692991       -0.59172026592068       -1.72926296513524
H           -7.15769831607238       -2.24187632663997       -2.34583800364022
H           -5.67776088351448       -1.35679904491440       -2.78503946442198
H           -4.86108353728315       -3.41878259879949        3.33131793781885
H           -5.18838529255615       -4.92024189212008        2.43205209277833
H           -3.54127979388573       -4.24432909880028        2.45281300802046
H           -3.11933492299646       -1.92651435895828        2.70099272435166
H           -2.26009949184235        0.25572948548639        2.07751849785907
H           -3.28081774004012        1.78773357895126       -2.26077921832197
H           -1.81234429824087        2.64244517373656       -1.81081862899154
H           -2.10281733028203       -0.39281610104719       -1.72713801334809
H           -1.52322116097879        0.52054107179114       -3.11871523591458
H           -0.82529443348132        1.42790728839228        0.49286675826639
H            0.39215165925954        1.42415649138289       -1.74168724975793
H            2.10664579944945       -1.19404187368883        0.11147591465942
H            4.17159972093032        1.99134408285056        1.17065103235590
H            2.21860178121482        1.69499766215358       -0.27453445534767
H            2.57673207204291        0.99014636544910       -1.84576139436550
H            4.71915094759464        2.57351180704777       -0.35167752344520
H            6.62028984686542        2.19738406495579        1.27240982784676
H            8.40469481793781        1.11451157164198        2.40065467213832
H            8.91104760799053        1.79367785004918        0.82725572529159
H            9.78861799673413        0.41117539946011        1.52752026847023
H            6.91543880199893       -3.74726277287095       -1.24060430130660
H            5.28401998403902       -3.37087778097459       -0.63476902882648
H            5.83700997018390       -2.70383130441296       -2.19894314175436
H            4.16915170366674       -1.36908550276860       -1.16779216935963
H           -0.60819483439796       -2.15305643107921       -1.43451440645772
H           -1.18617658525579       -1.39243268101326        0.06359912266612
H            0.32710059819329       -2.31252586094645        0.05733392518306
H           -4.84813263803465        2.45513567675180       -0.63142449130356
H           -3.80083908658279        3.19062748812699        2.12710695137193
H           -4.88248006429788        1.83650513430238        1.77232809202100
H           -5.42529224538082        3.49317798571202        1.51125145622369
H           -2.82535509988848        4.57887197951995        0.18291485634608
H           -3.39094783726844        4.25905174233003       -1.46561641310966
H           -4.50418739772559        4.87657061074895       -0.25505588174526
H           -0.70909252583900        3.24889944095522        1.93814909213579
72
 energy: -99.353595302995 gnorm: 0.017062733754 xtb: 6.6.1 (8d0f1dd)
N           -1.59089134908102        3.09972900607096        1.45444728562429
C           -1.66538698490375        2.11790518291662        0.68325943056749
C           -2.87781450412605        1.77518160175243       -0.13891333364944
C           -3.40297443657965        0.40891074100225        0.27048248727345
C           -4.36824135441130       -0.22600899132409       -0.51351667307479
C           -4.88547461812975       -1.46256246752916       -0.16629560551741
O           -5.82059141354514       -2.13991290548567       -0.86507660472474
C           -6.41020755993906       -1.53518682167896       -1.99172546861684
C           -4.42122986676827       -2.11001752446309        1.01035184301092
O           -4.96747521796595       -3.31710448876758        1.26210036772714
C           -4.60892753629850       -3.99832472965284        2.44127090132159
C           -3.47351384088463       -1.46910414754210        1.79193924199457
C           -2.97423708673461       -0.22462665398902        1.42706106428828
C           -2.40163156504815        1.74633428663773       -1.61669124040873
C           -1.57278694019992        0.51105060995354       -2.02125916124626
C           -0.18248155114392        0.54893987975095       -1.49857787464946
N            0.44503979818011       -0.43361536440138       -0.85443362137535
C            1.72155499470652       -0.37615402827496       -0.46831653507390
C            2.60416771686030        0.78716098568488       -0.77066921644844
C            4.03107395502374        0.57338423655897       -0.35963665467382
C            4.71281700683025        1.70380153107276        0.33149038899741
C            6.12168535096736        1.41595605721703        0.71981686276427
C            6.74669749675722        0.24605586898109        0.42793657170966
O            8.01555299810563       -0.08227694043833        0.74728300092649
C            8.81201128855857        0.87069496689047        1.41493255657707
C            6.03428088397975       -0.79138535924692       -0.27680419841989
O            6.74131979301372       -1.89859180358713       -0.51722303080040
C            6.14780965803810       -2.98504155656142       -1.19032477855717
C            4.69413968730370       -0.58655466659766       -0.64198637561247
C           -0.29755785098733       -1.63977609548244       -0.52357514787991
C           -4.03882807272666        2.80169339348640        0.01943353083815
C           -4.57055933504777        2.82714596796783        1.45065503474135
C           -3.65852155162191        4.21486492872023       -0.41391560897821
H           -4.72773872453023        0.26153816773472       -1.40428526753637
H           -6.90041967137536       -0.59249317913226       -1.73034176769732
H           -7.15729484455417       -2.24310867419768       -2.34514161117171
H           -5.67675928414859       -1.35956915601797       -2.78548661857220
H           -4.86124489278190       -3.41666560807926        3.33287134361461
H           -5.18973872283054       -4.91857450885901        2.43467166351099
H           -3.54202894178986       -4.24376235665038        2.45475355715657
H           -3.11995096907144       -1.92518912576611        2.70236023775477
H           -2.26081374146116        0.25690386775502        2.07824147590702
H           -3.27954174770881        1.78802477976487       -2.26097793268313
H           -1.81171616249982        2.64313300768634       -1.80975369021612
H           -2.10141225887174       -0.39221618437543       -1.72568363354340
H           -1.52210124725085        0.52081045067629       -3.11772472402143
H           -0.82566032387195        1.42971396507159        0.49356024343751
H            0.39293956168262        1.42577345540957       -1.74047714557644
H            2.10945513685631       -1.19370471031043        0.10821769591044
H            4.15124309295331        1.99879951360590        1.20697644592059
H            2.22383236466229        1.69365540740404       -0.28115322642061
H            2.57685732687500        0.98811261832169       -1.85293246231840
H            4.70144665379012        2.58613106061596       -0.33140215488474
H            6.62881543433198        2.20144253386573        1.25357218072401
H            8.40351689071494        1.11188559403900        2.40079437310070
H            8.91311832334993        1.78765487689054        0.82654338532409
H            9.78872549837711        0.40585513935516        1.53195215071808
H            6.91906590934076       -3.75059907215784       -1.24693894594874
H            5.28920655422278       -3.37736792158881       -0.63691197528288
H            5.83778567598193       -2.70723627052927       -2.20202721579195
H            4.17097472240178       -1.37374383105895       -1.16453282296440
H           -0.60778321256041       -2.15136093906820       -1.43432160872427
H           -1.18265267478259       -1.39115267677654        0.06493331919047
H            0.32989425140309       -2.31211688681929        0.05563746167135
H           -4.84883952839650        2.45416204711190       -0.63242595383407
H           -3.80339644046784        3.19183453214133        2.12628989116288
H           -4.88364524038329        1.83650761634371        1.77177136079499
H           -5.42784559249089        3.49256565016100        1.50949821023970
H           -2.82810303050211        4.57976889486188        0.18229838053647
H           -3.39237630898486        4.25900693117153       -1.46656211872008
H           -4.50688625544489        4.87594054519779       -0.25693129530228
H           -0.71122997535227        3.25121526914009        1.93881419844264
72
 energy: -99.353791072297 gnorm: 0.007570937750 xtb: 6.6.1 (8d0f1dd)
N           -1.59273395532178        3.10086155827282        1.45490010794158
C           -1.66632042667622        2.11901474134584        0.68369795828273
C           -2.87827729681034        1.77556228565035       -0.13888007505712
C           -3.40298370324470        0.40913031181807        0.27054081029502
C           -4.36780724909191       -0.22628611747733       -0.51359353827311
C           -4.88495157101690       -1.46279627846213       -0.16605679737258
O           -5.81977989945361       -2.14055185055648       -0.86479241899338
C           -6.40917842779818       -1.53647272779603       -1.99191917157282
C           -4.42126067592652       -2.10956863444479        1.01120483549241
O           -4.96760104171447       -3.31649711939890        1.26336150486311
C           -4.60953682622843       -3.99715634989078        2.44300846969805
C           -3.47373764013748       -1.46830570742432        1.79274590349167
C           -2.97458883067606       -0.22387856526853        1.42754732046677
C           -2.40143538915985        1.74691152625305       -1.61643878549484
C           -1.57229656132197        0.51180180067613       -2.02067367887615
C           -0.18212112922932        0.55017231991278       -1.49781403322749
N            0.44607597364351       -0.43315818065544       -0.85545399628607
C            1.72281727033055       -0.37603902775633       -0.47046381016617
C            2.60520913930268        0.78705481835924       -0.77351256484883
C            4.03138195576983        0.57303285511532       -0.35917611423467
C            4.71246596511387        1.70021340883080        0.33650376145811
C            6.12284311682686        1.41542249602832        0.71872994690503
C            6.74555903144354        0.24447446025280        0.42990580106516
O            8.01515239734204       -0.08264222791940        0.74650798924848
C            8.81264361334214        0.86923298579830        1.41424413565392
C            6.03356053321654       -0.79268064610516       -0.27525433834558
O            6.74122616263293       -1.89923993335906       -0.51774955467771
C            6.14920353782417       -2.98549956036156       -1.19269837861761
C            4.69418367539222       -0.58608281292746       -0.64138572586408
C           -0.29633032793999       -1.63922894739835       -0.52397449035644
C           -4.03994987403245        2.80146933845665        0.01882341987029
C           -4.57233084690692        2.82708676673952        1.44979972474152
C           -3.66037752257100        4.21475993271382       -0.41476206223047
H           -4.72686593892636        0.26072856801341       -1.40482183803544
H           -6.89882285738489       -0.59329374735061       -1.73127130787919
H           -7.15671887089473       -2.24429131961750       -2.34460248854493
H           -5.67571122590031       -1.36196960905131       -2.78592589404587
H           -4.86149524310232       -3.41478188197797        3.33423249816180
H           -5.19088394904715       -4.91705925920077        2.43702325942301
H           -3.54280782655263       -4.24323092317596        2.45664751148396
H           -3.12049074362019       -1.92393193874706        2.70352177051982
H           -2.26146396311361        0.25801975120036        2.07877121928939
H           -3.27899404808513        1.78860374215675       -2.26116749113233
H           -1.81148510568138        2.64377147292579       -1.80904165500216
H           -2.10067158983189       -0.39146682896684       -1.72469373078213
H           -1.52154171081393        0.52114750649301       -3.11716594367002
H           -0.82606275485116        1.43137019084333        0.49404827403732
H            0.39319860986935        1.42713796912316       -1.73950042497912
H            2.11086446368464       -1.19327242648614        0.10651860580219
H            4.14520252995011        1.99568075565842        1.22302755861525
H            2.22363574973395        1.69461663526533       -0.28684193632587
H            2.57981031699030        0.98537239361525       -1.85626675238567
H            4.69509414121679        2.58683588638904       -0.31994565319167
H            6.63460877518823        2.20305111531558        1.24569949707888
H            8.40382609725625        1.11075224443750        2.39998929663194
H            8.91584913554767        1.78580229106017        0.82598162312484
H            9.78837370804402        0.40261377597332        1.53207455213807
H            6.92219982325609       -3.74925069594980       -1.25180004227460
H            5.29236603219951       -3.38119856673727       -0.63901018852123
H            5.83745817707162       -2.70673337541437       -2.20357472004496
H            4.17288752480175       -1.36978286495243       -1.17013000615971
H           -0.60768804470391       -2.15050404386380       -1.43446146189153
H           -1.18062523792833       -1.39062755324173        0.06577305340376
H            0.33183399135687       -2.31184340155819        0.05418028791333
H           -4.84947300148205        2.45323689928286       -0.63326956562445
H           -3.80577604401011        3.19272821799230        2.12561144045317
H           -4.88474883707594        1.83634604500707        1.77124628799618
H           -5.43019673739202        3.49182635012115        1.50796235235091
H           -2.83057009147614        4.58045420404806        0.18183235508808
H           -3.39366375672817        4.25876073684164       -1.46727154122042
H           -4.50934718952932        4.87524386510773       -0.25846674288757
H           -0.71331188794469        3.25316042297833        1.93943062867070
