25
 energy: 0.000000000000 xtb: 6.6.1 (8d0f1dd)
C            3.23720132972391        1.16630909158653        0.08434468864950
N            2.29877796055224        0.07527476373246        0.03981602671198
C            2.58028186251803       -1.21425391179017        0.03006175752192
N            1.43813944744728       -1.93419254010258        0.00098261751768
C            0.39035684826767       -1.05887462812143       -0.00790371763344
C            0.93510047688824        0.21347817468824        0.01709077332874
C            0.09450143016486        1.40504290868848       -0.00410946993748
O            0.49712746915594        2.54126690785742       -0.00342325656480
N           -1.25076628431515        1.06271869620815       -0.03085477937476
C           -2.21907191394203        2.15522079838987       -0.05001256521996
C           -1.81739470187490       -0.20012724136556       -0.04692818139228
O           -2.99983858926755       -0.37846413507442       -0.07008877579474
N           -0.92618577614240       -1.30210203518959       -0.03682761236648
C           -1.46982251276835       -2.64643077634382       -0.06029819901142
H            3.71247229913541        1.21471443890471        1.06488839270555
H            4.00791460421487        1.03430799217987       -0.67357688121503
H            2.69909982127087        2.09770098766290       -0.09130154035862
H            3.56654087521359       -1.63682977417947        0.04233139674524
H           -1.67107945562430        3.09322822573871       -0.02552706696334
H           -2.82428927394145        2.09428605349656       -0.95318074103337
H           -2.87644002486466        2.07745706351925        0.81450059976605
H           -1.17061985538665       -3.19584861009707        0.83242224714061
H           -1.14560246782873       -3.17511580834413       -0.95688266944647
H           -2.55549768731684       -2.55659960601237       -0.07459039105944
H            1.38130842369251       -2.94313824728853       -0.01389874052104
25
 energy: -2.344254855192 xtb: 6.6.1 (8d0f1dd)
C            3.24686279739671        1.16599429195709        0.07863264450897
N            2.31097864061335        0.08497019448788        0.03337739241544
C            2.60316483769376       -1.24217409322479        0.03019962844364
N            1.43217259020733       -1.95041276260152        0.00361508880260
C            0.40068153018713       -1.06529914431541       -0.00763589207744
C            0.93360045974607        0.21364342496739        0.01234319514799
C            0.10949826337834        1.39241122055660       -0.00657090399288
O            0.51352363907745        2.55468151058287       -0.01141115172736
N           -1.25522292079266        1.06274332324258       -0.02983921318524
C           -2.21410484630769        2.17688861777449       -0.03864338902284
C           -1.81614011607980       -0.19858875710092       -0.04861818812391
O           -3.01212958348839       -0.38643315886335       -0.06604870993156
N           -0.92973167980416       -1.30661899406833       -0.03566102309999
C           -1.46219805329727       -2.65396464991791       -0.05521804737433
H            3.71865439852070        1.21873746876268        1.06315355527026
H            4.01910366555994        1.02425998372333       -0.67867532629415
H            2.70138182666985        2.08917174444963       -0.10748211553750
H            3.58180914663492       -1.66667121877865        0.04321143752324
H           -1.79798318018861        3.20499938871526        0.02905399640919
H           -2.76875990241849        2.15959664531345       -0.95237234584745
H           -2.93494563826351        2.03263030954856        0.76111809436021
H           -1.15913034747190       -3.20413820512958        0.83835324999114
H           -1.12889591609382       -3.18931475341220       -0.94715749250582
H           -2.54796695381006       -2.57348892513830       -0.07304310095410
H            1.36799164730326       -2.95459467278683       -0.00764747100352
25
 energy: 8.636022237717 xtb: 6.6.1 (8d0f1dd)
C            3.26127993120814        1.15516217654637        0.06483553637900
N            2.32509401105790        0.08722141613833        0.01912138176362
C            2.62766830013850       -1.27990491769253        0.03026355058061
N            1.42285787589130       -1.96899212928483        0.00872761240076
C            0.41421026580439       -1.07488938901946       -0.00604986273544
C            0.93216965324221        0.21067416596956        0.00367253981745
C            0.13297648730423        1.37302519403009       -0.01181865785531
O            0.53124139882347        2.55503134316889       -0.03063379690500
N           -1.26201377339782        1.07656803064668       -0.02106892981326
C           -2.21502854042244        2.21533731077827       -0.01844033986994
C           -1.80989938189794       -0.18807612934953       -0.04224188689431
O           -3.01423109180832       -0.39637839929216       -0.05431210778639
N           -0.93345147710349       -1.30676143879188       -0.03117464356246
C           -1.44626330700158       -2.66251414561573       -0.04530749763817
H            3.72677972002424        1.22335513346233        1.05437315443374
H            4.04064680444507        1.00269978754865       -0.68602321144711
H            2.71106705373672        2.07104622146455       -0.13978516841261
H            3.59746868721848       -1.70565023776839        0.04341806345859
H           -2.01019350320422        3.37380971341822        0.15835406635416
H           -2.65399311924538        2.29002527763665       -0.98381779445191
H           -3.05249746817920        1.93604609668390        0.65878577302042
H           -1.13783028915242       -3.21304525333332        0.85011924245453
H           -1.09741324252232       -3.20935447920059       -0.92853895195988
H           -2.53279229885477       -2.60538259787635       -0.06963010392144
H            1.35436160886776       -2.97002396152382        0.00420594478492
25
 energy: 28.016149981540 xtb: 6.6.1 (8d0f1dd)
C            3.27294282226477        1.14004932653364        0.04740394863050
N            2.33442421064132        0.08061722253236        0.00240644644710
C            2.64344416104126       -1.31266741146357        0.02768986543366
N            1.41783788944158       -1.98625487429794        0.01243686349469
C            0.42462629291342       -1.08755633457664       -0.00335817815686
C            0.93091775453575        0.20304494777925       -0.00420579743790
C            0.14741044380951        1.35797629839083       -0.01396637448875
O            0.53831567151997        2.54927293519790       -0.05025065952337
N           -1.27516508474603        1.09598662374204        0.00701086218777
C           -2.22909634617132        2.25951203584466        0.00558428735066
C           -1.80701184933505       -0.17873107232010       -0.02154701112156
O           -3.01267244686442       -0.41199646601008       -0.03408643345365
N           -0.93492571374759       -1.30655068982849       -0.02356029805405
C           -1.42665179067136       -2.67250837210730       -0.03511162156284
H            3.73027156897731        1.22649960577055        1.04148385153871
H            4.06205928332652        0.97767819434675       -0.69311494670278
H            2.72397695892187        2.05259983920062       -0.17756389996756
H            3.60957406745287       -1.73806675315488        0.03916263455945
H           -2.22173259976917        3.51534344396490        0.30730960517738
H           -2.50101907607915        2.45366242056282       -1.03019707634293
H           -3.17992142272485        1.84879572987610        0.52285158414524
H           -1.11245300671669       -3.22077181546357        0.86273624441598
H           -1.06036195221091       -3.22621226908755       -0.91035477355704
H           -2.51394987932472       -2.64367074574886       -0.06666305927812
H            1.35137434848765       -2.98702303093953        0.01493784846087
25
 energy: 48.349663994097 xtb: 6.6.1 (8d0f1dd)
C            3.27942738619348        1.12305028686980        0.03395613557301
N            2.33780029917077        0.06601471516567       -0.01215011893272
C            2.64953381024772       -1.33658568870052        0.02400128156033
N            1.41863857501646       -2.00052872874723        0.01329636311580
C            0.43125294388251       -1.10368991472843       -0.00115473087378
C            0.92970031492185        0.19001468961138       -0.01097322809169
C            0.15168694201456        1.34543552985473       -0.01749595365267
O            0.53226637946471        2.53354312499913       -0.06899398147833
N           -1.29345270347237        1.11379667696634        0.05145729602267
C           -2.25115559740106        2.30289849229359        0.02534129564694
C           -1.80798856616820       -0.17584596437102        0.01213445015849
O           -3.00672544050253       -0.43662931094583       -0.00848862011608
N           -0.93372328345942       -1.30899532633886       -0.01595997913600
C           -1.40666136922542       -2.68514437938100       -0.03007055827548
H            3.72701509167155        1.22748882880130        1.03177244463425
H            4.07992560241920        0.95447895250085       -0.69348201265385
H            2.73657610224316        2.03605330433846       -0.20965444330967
H            3.61764794996238       -1.75885344154340        0.03266370647810
H           -2.43617392104442        3.63520345602198        0.40867654961767
H           -2.34534194808767        2.61186339578991       -1.03293607988062
H           -3.25262609666647        1.81277755856162        0.37295318606424
H           -1.08900334745683       -3.23046050046654        0.87015218237589
H           -1.02364248310963       -3.23916026971158       -0.89967940191550
H           -2.49400905173349       -2.68383986374906       -0.06957528190996
H            1.36124671609174       -3.00385683434742        0.02124341117352
25
 energy: 63.006723223960 xtb: 6.6.1 (8d0f1dd)
C            3.28015687802063        1.10571698738193        0.02581694430135
N            2.33541242407237        0.04067125258146       -0.02151531669791
C            2.64012145422027       -1.34340022316773        0.02103525320807
N            1.42725520605272       -2.00669946181904        0.01323385269341
C            0.43118260121756       -1.12005624149330       -0.00061822850503
C            0.93267182093179        0.17270726448526       -0.01537619839764
C            0.14785584895152        1.34164615282497       -0.02356497093499
O            0.51637258081263        2.50804480309329       -0.08512655209469
N           -1.30837479574700        1.12681901338111        0.10114145722150
C           -2.27992314156677        2.33321324093233        0.03690346246297
C           -1.81227513583256       -0.17985202287297        0.04245783147632
O           -2.99365948843206       -0.46241065546292        0.01062803757285
N           -0.92824922432913       -1.31261287577661       -0.01263524620124
C           -1.39305725754924       -2.69636748471163       -0.02847560359565
H            3.71897493809039        1.22512473257172        1.02463739899093
H            4.08978118007997        0.93724859459775       -0.68928082660870
H            2.74704074723264        2.02330511591083       -0.22992547399812
H            3.61756476391529       -1.76187407484106        0.02592317300231
H           -2.65081176795064        3.72324133993682        0.45807637674647
H           -2.19399330435495        2.73455806234238       -0.96330137901850
H           -3.24057994395763        1.81125263856346        0.20745908158110
H           -1.07647690040355       -3.23644017616676        0.87490199929999
H           -0.99974698716609       -3.24549358992718       -0.89485271911241
H           -2.47889737214607       -2.71325179279273       -0.07477074410467
H            1.38386918081049       -3.01606181082751        0.02426230290681
25
 energy: 77.181759819402 xtb: 6.6.1 (8d0f1dd)
C            3.27497026663991        1.09651514856305        0.01378797951372
N            2.33165464170242        0.02261750011123       -0.02933519022108
C            2.62601219399263       -1.32969765145479        0.01261290769158
N            1.43982214046040       -2.00696018464383        0.01266511242860
C            0.42498554224252       -1.13073192281520        0.00489567820730
C            0.93601166523084        0.16050996460279       -0.00767951549946
C            0.14169983351210        1.34011247672896       -0.00627323748338
O            0.50683386372119        2.49394413842655       -0.10282363438578
N           -1.30675116180985        1.11478455566089        0.15192633037926
C           -2.28090939960983        2.33842304318386        0.04726317190405
C           -1.82004114226648       -0.19645538430285        0.06477189233194
O           -2.99116774209906       -0.48101524636363        0.03121201068593
N           -0.92283860137508       -1.32314972090997       -0.00373554718265
C           -1.39157671282668       -2.70802812629847       -0.02174136806651
H            3.70717531681491        1.21665415895702        1.01238968261221
H            4.08485796900578        0.92403349452873       -0.69698597457582
H            2.74643983013068        2.01474493184980       -0.24551421324255
H            3.61039592635004       -1.74399844621696        0.00918930699227
H           -2.83069649097030        3.79959932523922        0.51708394787359
H           -1.97842892228820        2.84848413647224       -0.87776108027626
H           -3.25691407031201        1.77487095654139       -0.00271762859383
H           -1.07559277912099       -3.24369923918669        0.88240613384214
H           -0.99624465573735       -3.24736957639889       -0.89001363864643
H           -2.47519390512282       -2.72622226242594       -0.07015148915042
H            1.40771069870783       -3.01893728110470        0.02156227505610
25
 energy: 89.541275356630 xtb: 6.6.1 (8d0f1dd)
C            3.26805257709548        1.09015135239583        0.01079953976549
N            2.32723049221869       -0.00013879072581       -0.02605478904194
C            2.59969633475556       -1.29317782192686        0.00923036661201
N            1.45697016874671       -2.00053281186425        0.01342400406566
C            0.41018232715054       -1.13262547639693        0.01055591347844
C            0.94425692945008        0.15202234786508        0.00581815522069
C            0.12233214138962        1.34663579412483        0.00384612997398
O            0.50092651716478        2.48225458586801       -0.13057708038908
N           -1.29122792490358        1.08292422003752        0.16621046673944
C           -2.27268649139076        2.30895524796249        0.04318158265773
C           -1.82957021560096       -0.22371776352713        0.06846775354625
O           -2.99091058950543       -0.49022299690670        0.03509603199868
N           -0.91240341456076       -1.33734058220855        0.00231885739661
C           -1.39533105704630       -2.71971723966080       -0.02130674399293
H            3.69296787097938        1.20437144172309        1.00895987827073
H            4.07612827798603        0.91477037468874       -0.69735418111304
H            2.74181732439832        2.00795262553801       -0.24722042896533
H            3.59111403132985       -1.71427134531598        0.00222013968127
H           -3.00225273083449        3.86512440608694        0.50042391164638
H           -1.81856252328672        2.90330549969347       -0.67699187891210
H           -3.17021931102492        1.77903844209568       -0.18942507893661
H           -1.08189736035344       -3.24952149359410        0.88239141077443
H           -1.00223940552131       -3.24737154327133       -0.89325864224677
H           -2.47768807159946       -2.72588622734475       -0.07065011188998
H            1.42552840793570       -3.01395345659271        0.01692870585453
25
 energy: 101.560707791066 xtb: 6.6.1 (8d0f1dd)
C            3.26474277722051        1.08770874449088        0.00419711376115
N            2.32731073490640       -0.00641559509851       -0.02725478414496
C            2.60049103229378       -1.28803770378467        0.00508797055638
N            1.46679285809257       -2.01169614294912        0.01410578555970
C            0.41036991576154       -1.14233337147957        0.01628877978754
C            0.94433922185908        0.14238336503813        0.01289000723257
C            0.10789128497420        1.33209358761251        0.00500840619816
O            0.49957295831421        2.46569697130985       -0.15067819189833
N           -1.28385913304029        1.05388413295075        0.16775260951770
C           -2.25280372017556        2.28943971885994        0.05389910762905
C           -1.82748855902855       -0.24680720578750        0.07856716074374
O           -2.99061647030185       -0.51179603788940        0.04426242386541
N           -0.90480965802721       -1.35758193446070        0.01213985614580
C           -1.39127515963973       -2.73819001345737       -0.01751282990274
H            3.68494368142122        1.20205657376984        1.00394862059435
H            4.07417178667618        0.90568673617321       -0.70103231678448
H            2.73613750868987        2.00179437560118       -0.25913072896799
H            3.59134508318338       -1.71173371727066       -0.00319379288688
H           -3.23091957938411        4.01913817626325        0.51739333834671
H           -1.63804863622586        3.02547398363836       -0.54045514168409
H           -3.15507774527318        1.76809975685298       -0.35352616634861
H           -1.08028716692987       -3.26681783787222        0.88656941011779
H           -0.99927142378620       -3.26396348779699       -0.89112959380736
H           -2.47448408642530       -2.73634365467526       -0.06739351408195
H            1.43304679981738       -3.02271063129506        0.01623038264587
25
 energy: 101.357126281245 xtb: 6.6.1 (8d0f1dd)
C            3.26452071878089        1.09855774408884        0.00666436606051
N            2.32827823466414        0.01928179859519       -0.01988494603154
C            2.62586568340482       -1.29870341231007        0.00315843416246
N            1.46615407796681       -2.03279962887182        0.01390327890669
C            0.42062879991540       -1.14067671112547        0.01661396765088
C            0.93645872646286        0.14587570108261        0.01600797889435
C            0.08520390880024        1.30906477086788        0.00047663960593
O            0.51456165882466        2.45944189214009       -0.13857428755006
N           -1.26757128524021        1.01298226959982        0.10650519166330
C           -2.19661542156957        2.22645307680131        0.04978099151802
C           -1.80972343516910       -0.26310668516353        0.06639332435860
O           -2.99749547278529       -0.51719561691394        0.03904074815762
N           -0.90061088486544       -1.37969852960319        0.01743524494024
C           -1.39011181604380       -2.75020242462577       -0.01825067638170
H            3.68597458533710        1.20306577338328        1.00963445073689
H            4.07326407446441        0.90496954079940       -0.70124863244540
H            2.72846697156482        2.00590305671821       -0.25824253419162
H            3.60261136571784       -1.72761912299752        0.00284629563934
H           -3.35759697457763        4.20572771546035        0.45786837935222
H           -1.60765451996154        3.04404686630695       -0.41440462198429
H           -3.14158335091718        1.78902181653755       -0.37073626719140
H           -1.08312017746413       -3.28215514323399        0.88624591416663
H           -1.00412077946787       -3.28117295013225       -0.89513629582838
H           -2.47819537102933       -2.72931826494579       -0.06603412708786
H            1.41462498815974       -3.03271474371437        0.01697109507312
25
 energy: 99.215212213570 xtb: 6.6.1 (8d0f1dd)
C            3.26343961074772        1.10424828027835        0.01557962267909
N            2.32357295925964        0.04481555696185       -0.00447879316918
C            2.64976108864798       -1.31036093569406        0.00655744861059
N            1.46280423080898       -2.04548556945427        0.01347529447847
C            0.43236602264885       -1.13891385886092        0.01017058550919
C            0.92854171962329        0.14759325785264        0.00739260200082
C            0.07118894758849        1.28496057124384       -0.02622718975846
O            0.53468006981472        2.45530290041348       -0.10211965939267
N           -1.25461330606837        0.97345576490383        0.02091942755282
C           -2.12137428986950        2.11221306310948        0.03331139366526
C           -1.78838360002986       -0.28414382432071        0.03246540188611
O           -2.99926039549070       -0.52085886753009        0.02424799928101
N           -0.90079619990134       -1.40386367173845        0.01190129673465
C           -1.39417388878029       -2.75914410316896       -0.01871469690967
H            3.69249829452858        1.20492543211851        1.01821407033558
H            4.06855292945600        0.90843391375616       -0.69807899275927
H            2.72346168184186        2.00920456164090       -0.24631534025496
H            3.61256002488523       -1.73499550008864        0.01677457914120
H           -3.45784083098061        4.45850253598945        0.34796021654169
H           -1.63125017248474        3.01550080892110       -0.28501965971101
H           -3.10721372114754        1.81269187745764       -0.29683781693289
H           -1.09391313777725       -3.29457686637644        0.88714674035623
H           -1.01922886392897       -3.29645559243538       -0.89802752416535
H           -2.48559368165493       -2.71683407692499       -0.06358906104412
H            1.40242881323536       -3.03718686931049        0.02032596751942
25
 energy: 96.603662811711 xtb: 6.6.1 (8d0f1dd)
C            3.26465913366308        1.10033475081195        0.02252896472917
N            2.32244113914143        0.04413810177072        0.00568038139529
C            2.65455173816528       -1.32173114591358        0.01318898515088
N            1.46460918168097       -2.04590377952342        0.01429881229999
C            0.44041345501893       -1.14871476942848        0.00691138645197
C            0.93247672633639        0.14142691191664        0.00135016595526
C            0.08600730023799        1.26997090607030       -0.04312551729854
O            0.54790264124304        2.45269353358506       -0.09058822947324
N           -1.25040781371330        0.95642270378121       -0.03503422471779
C           -2.06039780969681        2.01684650868471        0.01571858371425
C           -1.77680772462544       -0.31096846167241        0.00680739486235
O           -2.99267049515054       -0.53481986735460        0.00620522894767
N           -0.89950674881359       -1.42215645717545        0.00380464970070
C           -1.39712723333871       -2.76891445928285       -0.02105719448217
H            3.69747684952219        1.20546996515356        1.02359981430548
H            4.06754670573089        0.91190072635050       -0.69386018241106
H            2.72387768097426        2.00910105549426       -0.23438664918787
H            3.61861506691634       -1.74023537340635        0.02954118461029
H           -3.53865269557162        4.72474498040164        0.23695138404479
H           -1.66805245284544        2.99921497847454       -0.14199751901070
H           -3.11123913472097        1.82068568375798       -0.24401951802195
H           -1.10281146570024       -3.30591028816145        0.88566887379088
H           -1.02972729781744       -3.30889836998745       -0.90077617534398
H           -2.48825918890814       -2.71483442858652       -0.06451827507771
H            1.40729674724405       -3.04083461701666        0.02414158726060
25
 energy: 91.754470493957 xtb: 6.6.1 (8d0f1dd)
C            3.26450461808445        1.09383465098460        0.02944818355033
N            2.32599416612497        0.02379010702229        0.01036299797706
C            2.64422935584254       -1.32773356613717        0.02271920694283
N            1.47227560358517       -2.03692900803527        0.01833453909076
C            0.44284655897638       -1.16623927200688        0.00383842472779
C            0.94320321312897        0.13048927096922       -0.00335759961126
C            0.11948032757397        1.26349646530859       -0.05385797697309
O            0.54057944020639        2.44886769256362       -0.09533983501038
N           -1.25402160035283        0.95724656539401       -0.06529345765474
C           -2.06404185342723        1.98721155235025       -0.00965644528931
C           -1.77795415093234       -0.33698101554372       -0.01907532764753
O           -2.98476763134205       -0.55105352825484       -0.01241447178165
N           -0.89684463729723       -1.42979998971686       -0.01002694519848
C           -1.39971704189985       -2.77736853256068       -0.02329887308073
H            3.69652507809171        1.20625812143039        1.02881865504932
H            4.06644567004550        0.91597025869207       -0.68746773140401
H            2.72238288188786        2.00689294985872       -0.22405431742321
H            3.62112649839861       -1.73723511605943        0.04092305451684
H           -3.53985535574251        4.90814572043743        0.15572025066764
H           -1.73129723941359        2.99193056065527       -0.07484092805648
H           -3.09238328388176        1.80952652401207       -0.15193458834672
H           -1.10840973411205       -3.31121333822388        0.88547063653766
H           -1.03519155014592       -3.31918946008413       -0.90051670911987
H           -2.48784132302872       -2.71975114550148       -0.06688042412408
H            1.42494629460220       -3.04113767881035        0.02941359385587
25
 energy: 89.359769455228 xtb: 6.6.1 (8d0f1dd)
C            3.26547121863101        1.08594104908897        0.03113300233113
N            2.33515738988519       -0.00640775129679        0.00887965062021
C            2.63013805433591       -1.32588902780482        0.02568452613186
N            1.48555968432806       -2.02934947232487        0.01811864886411
C            0.44077047820212       -1.18281420646781       -0.00244428418494
C            0.95756122352971        0.11840577573063       -0.00959994535586
C            0.15467636825531        1.26428918492713       -0.05251137639487
O            0.52337099397958        2.44271361839723       -0.08099713228870
N           -1.24448041418313        0.95309500033960       -0.05487273800323
C           -2.08078297868949        1.98752258864927       -0.02783040562476
C           -1.78016622571870       -0.35891879926204       -0.03125396433895
O           -2.97550708272252       -0.55593040083409       -0.01839759071332
N           -0.89039086941676       -1.43175996781299       -0.02333062251109
C           -1.40184174249878       -2.78368856033225       -0.02428202172768
H            3.69754679417126        1.20334403125640        1.02739602281052
H            4.06573175604614        0.91845032707031       -0.68736033563260
H            2.72085820058634        2.00038348715205       -0.21899303758382
H            3.62036647912915       -1.72845749585913        0.04499608414111
H           -3.50286988719640        5.05853366738017        0.09445442126102
H           -1.75266426368572        2.96513177210233       -0.01639531495965
H           -3.16153507268516        1.79513252759274       -0.12713281507262
H           -1.10897839689881       -3.31109629381764        0.88623727244688
H           -1.04137628681157       -3.32665305753390       -0.89971117940461
H           -2.48743856188392       -2.72226882331603       -0.06416345642957
H            1.44303744628375       -3.04068038428063        0.02941050381398
25
 energy: 92.875636690486 xtb: 6.6.1 (8d0f1dd)
C            3.26124542946834        1.08704666618871        0.03163678172929
N            2.33916005613374       -0.02262378504112        0.00903802848565
C            2.61889513084467       -1.31224699725266        0.03436016014752
N            1.49671953443879       -2.02643761371545        0.02683550887715
C            0.43220741113603       -1.19050791887119       -0.00692729418526
C            0.96004370172131        0.11500281648802       -0.01824077521232
C            0.15757381328203        1.26761829699345       -0.06778238151915
O            0.49045329770959        2.44134867836223       -0.09010349548116
N           -1.24392106483917        0.92608742189277       -0.08149304009030
C           -2.10653561440012        1.95339230657963       -0.05181078092886
C           -1.79233984604373       -0.38730721878062       -0.05778952140639
O           -2.98311520780020       -0.57097126432001       -0.03253812994862
N           -0.88692569872154       -1.43879064318078       -0.03367013020403
C           -1.40201696778059       -2.79489468666726       -0.02043533404409
H            3.68979303501318        1.20492525184742        1.02753058111945
H            4.06308210057373        0.92068009932979       -0.68545304805209
H            2.71450113034198        1.99857326588198       -0.22017821435679
H            3.61584223954265       -1.71385588182242        0.05761220528691
H           -3.44779078948235        5.14257513674659        0.07078911097168
H           -1.74216031676178        3.06394952627767        0.04038530375311
H           -3.13837545821761        1.74266791442095       -0.08704068739352
H           -1.10755879396555       -3.31009501993416        0.89499311557198
H           -1.04064091083205       -3.33962854598838       -0.89295366916804
H           -2.48725277098047       -2.72869120632244       -0.06032859062490
H            1.45133086459171       -3.03878781036887        0.04059820886735
25