25
 energy: 0.000000000000 xtb: 6.6.1 (8d0f1dd)
C            3.23720132972391        1.16630909158653        0.08434468864950
N            2.29877796055224        0.07527476373246        0.03981602671198
C            2.58028186251803       -1.21425391179017        0.03006175752192
N            1.43813944744728       -1.93419254010258        0.00098261751768
C            0.39035684826767       -1.05887462812143       -0.00790371763344
C            0.93510047688824        0.21347817468824        0.01709077332874
C            0.09450143016486        1.40504290868848       -0.00410946993748
O            0.49712746915594        2.54126690785742       -0.00342325656480
N           -1.25076628431515        1.06271869620815       -0.03085477937476
C           -2.21907191394203        2.15522079838987       -0.05001256521996
C           -1.81739470187490       -0.20012724136556       -0.04692818139228
O           -2.99983858926755       -0.37846413507442       -0.07008877579474
N           -0.92618577614240       -1.30210203518959       -0.03682761236648
C           -1.46982251276835       -2.64643077634382       -0.06029819901142
H            3.71247229913541        1.21471443890471        1.06488839270555
H            4.00791460421487        1.03430799217987       -0.67357688121503
H            2.69909982127087        2.09770098766290       -0.09130154035862
H            3.56654087521359       -1.63682977417947        0.04233139674524
H           -1.67107945562430        3.09322822573871       -0.02552706696334
H           -2.82428927394145        2.09428605349656       -0.95318074103337
H           -2.87644002486466        2.07745706351925        0.81450059976605
H           -1.17061985538665       -3.19584861009707        0.83242224714061
H           -1.14560246782873       -3.17511580834413       -0.95688266944647
H           -2.55549768731684       -2.55659960601237       -0.07459039105944
H            1.38130842369251       -2.94313824728853       -0.01389874052104
25
 energy: -5.162315334124 xtb: 6.6.1 (8d0f1dd)
C            3.24713606096740        1.17015991693579        0.08133041433877
N            2.30903134273811        0.09952439415125        0.03008925088371
C            2.60440168057025       -1.24459482334411        0.03198179496199
N            1.42156605226351       -1.94312782651943        0.00287073626981
C            0.40188646784368       -1.06250000615897       -0.00782245377650
C            0.92253704854490        0.22413896892818        0.00923957636172
C            0.12069201183133        1.38932261553874       -0.00594007695263
O            0.50625916592164        2.56240543003547       -0.01084143239805
N           -1.26965854088769        1.07164071786136       -0.01650560266971
C           -2.22318020566358        2.17864118717702       -0.03689686677243
C           -1.81481468104554       -0.18267308827084       -0.03943260627921
O           -3.01325958534328       -0.38265667362070       -0.06506891196770
N           -0.93852442094266       -1.29645227785677       -0.03215995638229
C           -1.46601306950561       -2.64391622060266       -0.05610406513698
H            3.72308245494362        1.22125896514636        1.06509852044837
H            4.01826947585071        1.03080885706205       -0.67834015859704
H            2.70247904798408        2.09486300559864       -0.10131939659202
H            3.58077332582872       -1.65842473294558        0.04231993198610
H           -1.75155337789998        3.16000350666396        0.03952502754032
H           -2.76452959376344        2.17258692839829       -0.97522731706030
H           -2.93860636742206        2.03724462698211        0.76918676002257
H           -1.16158156979389       -3.19837745613899        0.83565617317617
H           -1.13401130260018       -3.17977589689737       -0.94972953674017
H           -2.55177897943697       -2.56485840087545       -0.07314221770000
H            1.36623981005986       -2.94771126964743       -0.00948505497553
25
 energy: -2.766564808468 xtb: 6.6.1 (8d0f1dd)
C            3.25255258431902        1.16662757044701        0.07554904074918
N            2.31513450333865        0.09475226275375        0.02168429981753
C            2.60897284109124       -1.25285767949262        0.03118825618687
N            1.42208577675606       -1.94941144249073        0.00542298238093
C            0.40530962056910       -1.06547754220961       -0.00631127277797
C            0.92600700971619        0.22042624138825        0.00351679881895
C            0.12668759196474        1.38870898911379       -0.00721306429091
O            0.51958351147143        2.55980265194636       -0.02321415492101
N           -1.27186328186580        1.08924596794955        0.00766659939061
C           -2.23056806438497        2.20602191908469       -0.02528677396131
C           -1.81448596751926       -0.17281080405778       -0.02157456263677
O           -3.01137548406051       -0.38472439253318       -0.05032759987283
N           -0.93762036978575       -1.29269914592144       -0.02195989592794
C           -1.46015544151405       -2.64521017231937       -0.05093169440437
H            3.72689166786669        1.22290960241935        1.06028548252648
H            4.02556558988500        1.02540059995393       -0.68161183944035
H            2.70515661440934        2.08897517350962       -0.11175117608546
H            3.58494975317659       -1.67011994541463        0.04154824275891
H           -1.84521418442576        3.22503750966019        0.11567849555360
H           -2.69256841312583        2.24937912420352       -1.00442825001861
H           -2.99939600018597        1.99315002417854        0.71427612475743
H           -1.15480308333515       -3.20170467007482        0.83991956732625
H           -1.12407802366319       -3.18378021145117       -0.94266875352100
H           -2.54647147803868       -2.57483715872745       -0.07149779018849
H            1.35979111584920       -2.95410181029230       -0.00371631580858
25
 energy: 0.633923703697 xtb: 6.6.1 (8d0f1dd)
C            3.25745121841448        1.16124918414709        0.06890398229527
N            2.32017054646181        0.08877948756945        0.01164782526999
C            2.61255140496548       -1.26188234629436        0.03108749252154
N            1.42184502501553       -1.95622565181764        0.00882743909552
C            0.40842670219270       -1.06932866663250       -0.00427719705123
C            0.92853024691235        0.21575517496450       -0.00129364783898
C            0.13069139052617        1.38630967845305       -0.00899710050370
O            0.52873819767099        2.55576632647760       -0.03917133753396
N           -1.27625338415339        1.10363639257934        0.03445866120147
C           -2.24204824348008        2.23281476532307       -0.01277449946913
C           -1.81508803989241       -0.16649596977588       -0.00330331076431
O           -3.00992989493329       -0.38983527196089       -0.03560905884783
N           -0.93553650431618       -1.29099191293947       -0.01397957503970
C           -1.45348880055555       -2.64693572914734       -0.04591913638786
H            3.72946517477890        1.22402394413703        1.05451014515145
H            4.03333906580941        1.01841395547315       -0.68459636513471
H            2.70921863859360        2.08231822549410       -0.12355470511537
H            3.58793406585249       -1.68239009006173        0.04184433966984
H           -1.94357089956539        3.28117015750533        0.19563092408530
H           -2.61539498323328        2.32642012277185       -1.02823757520266
H           -3.05624379021003        1.94890740531073        0.65419556852176
H           -1.14635702940488       -3.20317630338975        0.84504776721774
H           -1.11237594508225       -3.18682972467336       -0.93591055971147
H           -2.54040187373630       -2.58448230689869       -0.07005331324325
H            1.35325041862699       -2.96093220957182        0.00344080783760
25
 energy: 4.750444655712 xtb: 6.6.1 (8d0f1dd)
C            3.26144644514843        1.15519189518988        0.06224117930237
N            2.32428624357467        0.08145972534447        0.00165120623520
C            2.61616308473298       -1.27144482528892        0.03061009177243
N            1.42237448354548       -1.96411462280365        0.01202636574668
C            0.41134101477114       -1.07502850350161       -0.00128301991667
C            0.93025430975552        0.20962960284782       -0.00435189173095
C            0.13260376414233        1.38132887975015       -0.00921067918055
O            0.53301917350092        2.54918459378687       -0.05582059575324
N           -1.28239960255018        1.11508922315553        0.06276642622121
C           -2.25623210295574        2.25915961622102       -0.00096558094345
C           -1.81634610870694       -0.16280236964823        0.01526349574824
O           -3.00886585436002       -0.39694189915644       -0.02131863194960
N           -0.93343089729797       -1.29134722433842       -0.00646707251798
C           -1.44727871901376       -2.64992375675209       -0.04070636529590
H            3.73134650777211        1.22409631562230        1.04842773564411
H            4.04040300222038        1.01078396834234       -0.68747202372690
H            2.71356579085517        2.07577768086984       -0.13481242671329
H            3.59120425642595       -1.69453599415769        0.04099614469285
H           -2.04421317060887        3.32671552249718        0.27872278008575
H           -2.53540146605187        2.40595893579204       -1.04389082269374
H           -3.11034267394937        1.91038144091788        0.58652737810003
H           -1.13855451263091       -3.20596784037725        0.85024309198554
H           -1.10151126265696       -3.19068279224071       -0.92904419228628
H           -2.53462003062078       -2.59443348340174       -0.06807000686204
H            1.35095779802334       -2.96911942671881        0.01014572835390
25
 energy: 10.061672623274 xtb: 6.6.1 (8d0f1dd)
C            3.26225815875620        1.14909324947863        0.05474932087345
N            2.32677137376732        0.07214026498901       -0.00841951612728
C            2.61967025559491       -1.28268748911981        0.02960921749909
N            1.42321316600867       -1.97423963093559        0.01239715729922
C            0.41388102303877       -1.08303788639500       -0.00014593755166
C            0.93081481879769        0.20121843834310       -0.00730560504819
C            0.12987964364019        1.37278704521072       -0.00838390205215
O            0.53228772887648        2.53887935103877       -0.06448077181777
N           -1.29133980977170        1.12469254054109        0.09260829395841
C           -2.27226817862036        2.28858578377646        0.01171681306074
C           -1.81886392787483       -0.16156432760069        0.03497921651462
O           -3.00851217424301       -0.40656680277869       -0.00711218875194
N           -0.93164112586587       -1.29305069395502       -0.00032866099185
C           -1.44090981752971       -2.65356474014858       -0.03542783022772
H            3.72660885550160        1.22721749246007        1.04267517930921
H            4.04697357364728        1.00437363599750       -0.68872137086529
H            2.71322712662950        2.06758399561813       -0.15000016538653
H            3.59473767870317       -1.70783991747935        0.04132923385011
H           -2.14921645326555        3.37226776036875        0.35519620988878
H           -2.45594170722782        2.48584121586904       -1.04560785097790
H           -3.15649557030982        1.87539683064245        0.51192390712886
H           -1.13109968330755       -3.20596226489447        0.85766514414616
H           -1.08910201023392       -3.19678270688538       -0.92053455580782
H           -2.52846975492547       -2.60339642782030       -0.06729091233280
H            1.35103558230368       -2.97976789711665        0.01287716988831
25
 energy: 16.298841568071 xtb: 6.6.1 (8d0f1dd)
C            3.26489865295611        1.14233691102705        0.04797622224489
N            2.32842388108217        0.06411999700355       -0.01529275513550
C            2.62337992108475       -1.29218887125520        0.02795029947224
N            1.42516845178955       -1.98314606784320        0.01425873899875
C            0.41669715987769       -1.09036067951094        0.00203307421856
C            0.93057360521721        0.19448624097879       -0.00859162208730
C            0.12277734632645        1.36640329957500       -0.00206259766515
O            0.52553297560768        2.53032383288756       -0.07567222863863
N           -1.30008069141740        1.12836586845139        0.12639697824946
C           -2.29186448515455        2.31362786190010        0.02589433350985
C           -1.82168970415595       -0.16570073047736        0.05346630854340
O           -3.00873851178362       -0.41855016214354        0.00640974450435
N           -0.92918363549200       -1.29661673465996        0.00430405603599
C           -1.43461471515142       -2.65841874116569       -0.03222783282861
H            3.72525436120553        1.22543403144836        1.03697791401706
H            4.05348658755175        0.99622579517511       -0.69128796324259
H            2.71819728375546        2.06153600672408       -0.16085841477990
H            3.59832475771769       -1.71931494268380        0.04023832051372
H           -2.26080539754313        3.41347174585724        0.41631338178120
H           -2.36976927515654        2.55793795409669       -1.03813048834333
H           -3.20458657622202        1.85478918127249        0.43196657471007
H           -1.12296989637664       -3.20927522910951        0.86137629668041
H           -1.07827120073873       -3.20122110497736       -0.91576453313337
H           -2.52255839089800       -2.61341975058655       -0.06632017607430
H            1.35664142390878       -2.98921245940682        0.01848430628850
25
 energy: 23.040738028142 xtb: 6.6.1 (8d0f1dd)
C            3.26877948053689        1.13402218372706        0.04132794191995
N            2.32992038889572        0.05557075166773       -0.01839371848620
C            2.62718475571640       -1.30174886663385        0.02752819921161
N            1.42796924002635       -1.99134566614528        0.01656048901828
C            0.41916836709997       -1.09794003464810        0.00599609590182
C            0.93060162747825        0.18790008681972       -0.00432538734208
C            0.11555725270467        1.36024256207436        0.00765015509152
O            0.51627772478602        2.52226069521029       -0.08517354247929
N           -1.30588585868327        1.12293128105218        0.15215811918678
C           -2.30070736606006        2.31653225113606        0.03206918787373
C           -1.82365869237762       -0.17645793815366        0.06104152204298
O           -3.00851006037015       -0.43374010342561        0.01269785740854
N           -0.92664386682515       -1.30307938534167        0.00918430105400
C           -1.42795231470755       -2.66533988423956       -0.02904559036259
H            3.72512024695175        1.22240634696352        1.03148447671169
H            4.06058215709536        0.98364563160555       -0.69405048587475
H            2.72644990906212        2.05460316137916       -0.17389973790433
H            3.60212973410150       -1.73068797616666        0.03818408104205
H           -2.38220527888966        3.44055359805488        0.46272742448292
H           -2.28817484110617        2.62772106301280       -1.01499330262533
H           -3.23794401450358        1.83365156651071        0.34213346384043
H           -1.11501138480055       -3.21516279703917        0.86476894603590
H           -1.06707969662898       -3.20596131558120       -0.91167097465931
H           -2.51615816786998       -2.62356717647924       -0.06495381017963
H            1.36489974097019       -2.99752019756767        0.02171285848599
25
 energy: 31.301049314274 xtb: 6.6.1 (8d0f1dd)
C            3.26878728696953        1.12727359055062        0.03632121956746
N            2.33096725533226        0.04668951596215       -0.02344478826620
C            2.63116064859418       -1.31148000019322        0.02463281485640
N            1.43200833444266       -1.99868455773908        0.01777555983730
C            0.42157429658722       -1.10613806778626        0.00930844464890
C            0.93161342781168        0.18027407703285       -0.00001128415249
C            0.11125245416911        1.35249053013537        0.00952109735776
O            0.50967964142333        2.51329836577828       -0.10086406174391
N           -1.30330276132000        1.11112334071365        0.17025540020676
C           -2.29185804089029        2.31953243483855        0.03901872976829
C           -1.82308476781888       -0.18982231559840        0.06934387817259
O           -3.00750921400662       -0.44589068731506        0.02117137818590
N           -0.92417963532825       -1.31187337660080        0.01416439435955
C           -1.41988018066707       -2.67483972664104       -0.02632306840008
H            3.72050252260927        1.21925038561268        1.02793834589372
H            4.06340654276065        0.97668974582467       -0.69591628697620
H            2.72742555062116        2.04798962804833       -0.18240250338087
H            3.60565489315821       -1.74280762040205        0.03364584984975
H           -2.49949764124789        3.47081830429478        0.49812611086757
H           -2.19163535596651        2.69175115094752       -0.97923735636921
H           -3.24080334323878        1.82346383248156        0.25571274872198
H           -1.10326417838706       -3.22289197897246        0.86720532598337
H           -1.05279231154556       -3.21176423168427       -0.90819807618146
H           -2.50856141260650       -2.63946937202390       -0.06353775857514
H            1.37366226197664       -3.00482579152430        0.02438631168504
25
 energy: 41.090986185100 xtb: 6.6.1 (8d0f1dd)
C            3.26902144927802        1.12078980115037        0.03144573904325
N            2.33237623053522        0.03804749549604       -0.02711235781107
C            2.63252637019774       -1.32025503767110        0.01918145708046
N            1.43529663998383       -2.00452957572125        0.01620641399856
C            0.42291707407257       -1.11382200600503        0.01351366676270
C            0.93393955649645        0.17275386715084        0.00604848481545
C            0.10940402570325        1.34143866334241        0.01284788273185
O            0.50449272870522        2.50278556202515       -0.11273501540102
N           -1.30094143446722        1.09549955725848        0.18446230186399
C           -2.28010907139571        2.31147201374268        0.03449299991401
C           -1.82149279069177       -0.20381354514226        0.08174238599815
O           -3.00629788262743       -0.45663287630261        0.03485190310037
N           -0.92202834113379       -1.32081224533218        0.01807027978119
C           -1.41309532793979       -2.68328250308481       -0.02502827540561
H            3.71638013807119        1.21657491892463        1.02405591092265
H            4.06749051337409        0.97114842697666       -0.69676136096024
H            2.72878518743987        2.04173853723944       -0.19091881209399
H            3.60688715869690       -1.75411531475754        0.02595753103478
H           -2.61756811487156        3.51115040158715        0.53747819389824
H           -2.08572090536136        2.74466105199184       -0.94608127516057
H           -3.23828179915289        1.81270669985742        0.16187533300873
H           -1.09442066039977       -3.22770745489100        0.86972951112650
H           -1.04004856701763       -3.21772885629832       -0.90530152301058
H           -2.50238588944302       -2.65123714891589       -0.06434097925335
H            1.38256172061591       -3.01042809620479        0.02289612280249
25
 energy: 55.225492612544 xtb: 6.6.1 (8d0f1dd)
C            3.26958176723965        1.11493213795419        0.02706107853317
N            2.33135885106943        0.03344250702414       -0.02650536075292
C            2.63087057796923       -1.32044732800930        0.01357695314149
N            1.43907803736824       -2.00630872366929        0.01589681962334
C            0.42277155056911       -1.11939811198010        0.01629740302138
C            0.93368115947993        0.16746799604879        0.01062016470004
C            0.10680722150074        1.33192417455591        0.00765275165949
O            0.50065931709525        2.49324142653910       -0.12980454778492
N           -1.30065064921007        1.08030387857896        0.17938280135603
C           -2.26727998661108        2.28156476455063        0.01929684977097
C           -1.81711245403602       -0.21923196381364        0.07894309648149
O           -3.00307496152668       -0.46955057833043        0.04155829269689
N           -0.91997659535502       -1.33099181212770        0.01892422287478
C           -1.40769341828067       -2.69289266608951       -0.02350694619388
H            3.71175741491659        1.21462066915228        1.02100181865337
H            4.07247572497507        0.96269091210696       -0.69627481203331
H            2.73221943076178        2.03594037727708       -0.20241350422270
H            3.60607174036438       -1.75265134825270        0.01515737715998
H           -2.76241825139342        3.57754354617033        0.53886638782596
H           -1.98943945286716        2.79082360014035       -0.90015083581354
H           -3.23806929122517        1.79720616186641        0.06996849289477
H           -1.08633737533733       -3.23229387231061        0.87322871474080
H           -1.02810461248187       -3.22518507981460       -0.90185674103134
H           -2.49701861680284       -2.66277784232005       -0.06542448183847
H            1.39389687713349       -3.01258936868166        0.02227553144671
25
 energy: 79.145641700122 xtb: 6.6.1 (8d0f1dd)
C            3.27041127638597        1.10856031306943        0.02290840960043
N            2.33131836265199        0.02400082441994       -0.02278507471326
C            2.62665823314879       -1.31307957210990        0.00953829649054
N            1.45006915896572       -2.00941507586132        0.01600401576955
C            0.42257013281748       -1.12859239582942        0.02033690684397
C            0.93708045154443        0.15612294933595        0.01549011740331
C            0.10127786115897        1.31843860703816       -0.00539850927816
O            0.50041608729651        2.47208756124758       -0.14854925058941
N           -1.29078029280548        1.04650389816011        0.13100387298249
C           -2.21878290518976        2.17705569483199       -0.00636260234076
C           -1.80959575309921       -0.24888054190673        0.06790610052935
O           -2.99437382581463       -0.49393146213824        0.04241665235886
N           -0.91154450138270       -1.35116263326101        0.02142632858288
C           -1.40279375720858       -2.70904108419227       -0.02071745837915
H            3.70609453511504        1.21224033492430        1.01831718471695
H            4.07663844024481        0.95296131395117       -0.69554504175098
H            2.73553186507251        2.02935794585621       -0.21400046733804
H            3.60474659055672       -1.74104186137579        0.00828400559910
H           -3.00079300154442        3.80042756559802        0.54934663186754
H           -1.90461800856749        2.83673156078916       -0.79997834123961
H           -3.22903310218938        1.78467347598195        0.00586625794058
H           -1.08652102848630       -3.24294446333838        0.87983527597446
H           -1.01716825894824       -3.23500350189751       -0.89927618644984
H           -2.49179338613821       -2.67202994902708       -0.06731012410121
H            1.40939006455660       -3.01520545243693        0.02066243854078
25
 energy: 86.053087184420 xtb: 6.6.1 (8d0f1dd)
C            3.27217919106441        1.10462276009896        0.01890344305783
N            2.32746121315689        0.02406935887307       -0.01869635062503
C            2.62015025042181       -1.30378139583665        0.00753751918232
N            1.45728797791398       -2.01218637845496        0.01606696348822
C            0.42195807016603       -1.13672011710518        0.02311391497031
C            0.93502710539993        0.15112655114309        0.01758739122944
C            0.09936325745560        1.30882607493235       -0.01253302237234
O            0.50486262723787        2.46201838671252       -0.13933819831988
N           -1.28544265673272        1.02400598293871        0.09747161526792
C           -2.18680510617984        2.12075042656670       -0.01981668608234
C           -1.80515877141708       -0.27108139272897        0.05608307321771
O           -2.99204766598972       -0.51102429490919        0.04636177018545
N           -0.90723784531734       -1.36623690449032        0.02159417402490
C           -1.40092701233804       -2.72090716451684       -0.01985410302309
H            3.70418832091717        1.20762261351287        1.01550055482876
H            4.08136742597070        0.94290080038897       -0.69466998718334
H            2.74422062112498        2.02736927572048       -0.22240398900362
H            3.59942811668770       -1.72902725432013        0.00245910227681
H           -3.17252897217500        3.95018869406411        0.54653686532777
H           -1.83035051929264        2.88000695667617       -0.69188865305041
H           -3.21491461889620        1.78347529239046       -0.06469644992797
H           -1.08911710666623       -3.25228682799309        0.88242467368195
H           -1.00633656292104       -3.23943039043786       -0.89746347977017
H           -2.48912370075939       -2.68106970469678       -0.06879483555984
H            1.42126287074701       -3.01792407068131        0.01656888805444
25
 energy: 88.801013422851 xtb: 6.6.1 (8d0f1dd)
C            3.27046582990180        1.10135854204647        0.01469130962074
N            2.32422098772728        0.02440956031775       -0.01741902716004
C            2.61418280333223       -1.29700979435793        0.00694012582389
N            1.46172170118848       -2.01529505477722        0.01539413789606
C            0.42273096896797       -1.14201212860805        0.01904631108881
C            0.93385178156789        0.14899711055714        0.00872644152763
C            0.10480631580573        1.30162594505974       -0.02484784118664
O            0.51420032320190        2.45837295208942       -0.12633490793810
N           -1.27589923879441        1.00998881570379        0.06344534104672
C           -2.14703415038510        2.09389634000877       -0.03489830457547
C           -1.80094140453602       -0.28706994687016        0.03798361255139
O           -2.99228361947136       -0.51590777359569        0.03353433802300
N           -0.90483348278119       -1.37734853538504        0.01698005905183
C           -1.39796967187409       -2.73181707393895       -0.01860986413402
H            3.69489666442630        1.20562312435793        1.01421656709033
H            4.08446090797036        0.93293199738032       -0.69159836312840
H            2.74381197091680        2.02203918693201       -0.23482615173244
H            3.59455515266281       -1.71792614741313        0.00339621647391
H           -3.29039751801665        4.09537242074657        0.51045457285752
H           -1.75264007043187        2.92467885481661       -0.60267462147659
H           -3.17701758469612        1.79057922661232       -0.13248494655512
H           -1.08759360552487       -3.26089914527025        0.88519328682195
H           -1.00588232899849       -3.24899738644835       -0.89653199773179
H           -2.48518969214637       -2.69413702452476       -0.07061161925322
H            1.42367188855061       -3.02230645927984        0.01732907463405
25
 energy: 90.053492397995 xtb: 6.6.1 (8d0f1dd)
C            3.26861826048618        1.09789846943844        0.01053778317249
N            2.32413172047537        0.02239570578184       -0.01393087344719
C            2.61441123436833       -1.29607077194646        0.00385545088114
N            1.46705043817616       -2.01918445293156        0.01402079734421
C            0.42589710199783       -1.14842917059521        0.01410900907956
C            0.93618150506916        0.14527894894219        0.00316531836912
C            0.11458996763524        1.29361815572367       -0.03317511130123
O            0.52274722736261        2.45494857632479       -0.11208117610853
N           -1.26686346075263        0.99825172905017        0.03220029362671
C           -2.11659396302297        2.07848662317053       -0.05205762741857
C           -1.79590274985833       -0.30138983371462        0.02056378097095
O           -2.98983714869415       -0.52220007832230        0.01707942557542
N           -0.90125358403966       -1.38861234656638        0.01228178958015
C           -1.39470476969365       -2.74303099509009       -0.01775116666443
H            3.69005260479887        1.20576373348623        1.01024973554217
H            4.08251984811210        0.92438327685447       -0.69508846307767
H            2.74227522473839        2.01655847441186       -0.24591085568859
H            3.59637324078002       -1.71270280456993       -0.00303640543855
H           -3.37621484359549        4.24518634929913        0.44883613442135
H           -1.68344862280937        2.96572142085188       -0.52469726785562
H           -3.14791451946979        1.79823573829678       -0.20824699819777
H           -1.08760900245767       -3.27129472415624        0.88758429754775
H           -1.00444029702122       -3.26535139270552       -0.89405248811115
H           -2.48139874615449       -2.70349534686274       -0.07196930430231
H            1.41625348247022       -3.02645003315347        0.01669020657421
25