72
 energy: 0.000000000000 xtb: 6.6.1 (8d0f1dd)
N           -1.47310921155849        2.74401293103706        2.22063921685122
C           -1.55658879776851        2.16490285539332        1.13274273951491
C           -2.74549199786261        2.05621232186130        0.23826248438941
C           -3.31377553111525        0.64333411542669        0.32332512650568
C           -4.30230156009016        0.24487110156316       -0.58026161703006
C           -4.85238763031941       -1.02286490450319       -0.53363588718165
O           -5.81419972815119       -1.48606034185536       -1.36157882725342
C           -6.39655633239252       -0.60827000183299       -2.29568474302620
C           -4.39972501531283       -1.94646102182611        0.44396929121966
O           -4.98748311285188       -3.16145997157803        0.41085992006324
C           -4.66362127904578       -4.10093827755394        1.40909127743729
C           -3.42072513477031       -1.54561384810496        1.33436546260297
C           -2.88302799614223       -0.26315800396994        1.27400150770375
C           -2.19303798107274        2.30467000305896       -1.18742977106749
C           -1.26651538239283        1.17243369445008       -1.65249429687285
C            0.01082524939134        1.09745454476277       -0.89354803499847
N            0.61779393476578       -0.02034948052406       -0.57705522512502
C            2.00145210352228       -0.02376006389122       -0.15611399603240
C            2.92554934655222       -0.53865282675074       -1.27700088804721
C            4.35756843073516       -0.43050757231754       -0.83075544324989
C            5.07346135469827        0.73206409086248       -1.03980965825901
C            6.38627986649936        0.84224441421807       -0.60344822702769
C            7.00047264773336       -0.20824756335880        0.05722314418200
O            8.26703657141718       -0.21011313101264        0.52410943644933
C            9.06912227848686        0.92943601033931        0.31863058007678
C            6.27039964270142       -1.40439753960823        0.28033466008274
O            6.94829939911432       -2.38012925705718        0.92751999079483
C            6.31537317745639       -3.61583200086742        1.15217711710877
C            4.96302794628964       -1.49347471867959       -0.16064430359178
C           -0.05511211367372       -1.29906247805359       -0.62085686319744
C           -3.86758037025447        3.07992600430699        0.58498060215443
C           -4.49286159663096        2.77383493050346        1.94313289484366
C           -3.39165179876499        4.52917666589254        0.54797523472093
H           -4.66030026466202        0.94509067363451       -1.31640568823548
H           -6.85037928558380        0.25803162192116       -1.80468845313260
H           -7.17287442604349       -1.18600110843259       -2.79318157561361
H           -5.66836817451085       -0.26952966318766       -3.04040255244073
H           -4.88416720672258       -3.71589460520039        2.40913542187496
H           -5.29223570620378       -4.96637458756866        1.20969236903657
H           -3.61139813139015       -4.39919835331056        1.35529357841967
H           -3.07077796610445       -2.21868765711333        2.10002662693138
H           -2.14562754426994        0.02067850696302        2.01001344383370
H           -3.02188875377605        2.38238012313952       -1.88813545054866
H           -1.65198530896729        3.25146700677685       -1.20556284570283
H           -1.81103374245520        0.23006524641044       -1.62116301628650
H           -0.99335688527853        1.37490212198123       -2.69443256973690
H           -0.67628064361333        1.65183887049447        0.61785727145403
H            0.63525841192517        1.98466369793744       -0.92314021190751
H            2.11132552493482       -0.65949692842762        0.72532613231274
H            2.30680473056284        0.98978251704176        0.11078972794250
H            2.76694198818247        0.06750735147374       -2.17075252200790
H            2.67954581369920       -1.57455627803457       -1.51167743520200
H            4.62169998552446        1.56295612048703       -1.56123579000624
H            6.92357674630170        1.75715815945204       -0.79119596719031
H            8.65159112996149        1.81001823324363        0.81701555159939
H            9.20136171144928        1.14042857828877       -0.74698991949293
H           10.03428838009630        0.69003240176163        0.76064937965836
H            7.05567174969094       -4.23621171795340        1.65347565939075
H            5.43848001056755       -3.50813558175093        1.79970565785717
H            6.02060041905269       -4.09420497120334        0.21253282636366
H            4.40102758497114       -2.40127266373392       -0.00490198249042
H           -0.22071299714579       -1.61775583601871       -1.65116008982042
H           -1.01972258008625       -1.24102717432227       -0.10935206830928
H            0.55899954147532       -2.04486085926761       -0.12333730421426
H           -4.63991875734388        2.95501092798550       -0.18098088071825
H           -3.76095216473977        2.90314704960906        2.73380821053058
H           -4.87457614030224        1.75695641518947        1.97884603101694
H           -5.31925552549014        3.45579210326349        2.12325564252114
H           -2.60025590131176        4.69225046143352        1.27368918226171
H           -3.03987406413880        4.81897652321898       -0.43870975059559
H           -4.22191740670577        5.18069648090034        0.80616693961239
H           -0.59832433787845        2.77744694953323        2.72958984441332
72
 energy: -6.747821468991 xtb: 6.6.1 (8d0f1dd)
N           -1.47647331214974        2.81928841167719        2.24847910146795
C           -1.55315818575071        2.15612476069350        1.17956306488997
C           -2.74662635225637        2.06345667799843        0.26955932930893
C           -3.31814730151241        0.65613703635194        0.34713002650340
C           -4.29384066577182        0.25173279999455       -0.56299084540191
C           -4.82770658035697       -1.02116083745973       -0.52813227839174
O           -5.77403082676715       -1.49511366360050       -1.38714792684236
C           -6.32902708502544       -0.60921098856578       -2.32364885197899
C           -4.38920661742302       -1.93927573298407        0.45032994423971
O           -4.97022400657823       -3.17233971945568        0.40269701724695
C           -4.64415672116531       -4.09961907227536        1.40458671872475
C           -3.43263182005394       -1.53329700671979        1.36030400175940
C           -2.90363846817174       -0.24868772166490        1.30623829651584
C           -2.18660864607362        2.29967951825266       -1.15845079919296
C           -1.26025702019205        1.18168879710526       -1.67303118309529
C            0.01452186404229        1.12750158073935       -0.91292192764844
N            0.63191986286784       -0.05745175606658       -0.55851901782948
C            2.00420562624189       -0.05397708901802       -0.16630706584118
C            2.93303099808904       -0.55656268858405       -1.29669280419382
C            4.35783354677085       -0.44487872354302       -0.86115875282026
C            5.06911288639164        0.72180601019803       -1.06324847551277
C            6.37372685794718        0.83952814773024       -0.61201800988820
C            6.98608670398440       -0.20950814569606        0.05069054943757
O            8.26392892811452       -0.20301666006185        0.52902327790156
C            9.05161735337443        0.93851820316942        0.31435420097254
C            6.26469816597264       -1.40408438056244        0.26919723662590
O            6.94240152710298       -2.38346691185186        0.93389313571380
C            6.30027495744253       -3.61180920338453        1.15219799954831
C            4.96401427954656       -1.50160141920596       -0.18324753211962
C           -0.05536860987273       -1.31636282831840       -0.62184672941080
C           -3.88043305592599        3.07926048767227        0.58706530357130
C           -4.51330861228920        2.78946530934092        1.94616725970291
C           -3.40993571744658        4.53117373523152        0.54637492907910
H           -4.62868932602126        0.94868061012715       -1.31215630270624
H           -6.79081104119190        0.25685238029395       -1.83786394592702
H           -7.09337985222816       -1.18118068769540       -2.84707089557921
H           -5.58410948658312       -0.26118785349720       -3.04588991014616
H           -4.87783590521472       -3.71534658818840        2.40152326479611
H           -5.25758562375249       -4.97650876707499        1.20393544813074
H           -3.58713324870785       -4.38284059636984        1.36654759396219
H           -3.08952513818610       -2.20415674728542        2.13327110199513
H           -2.17642684560786        0.04449150201066        2.04787273325493
H           -3.02103838743897        2.39886860627765       -1.84998453916502
H           -1.63782613528917        3.24216922111182       -1.15608725441743
H           -1.79153291370352        0.23238588138521       -1.63580377753999
H           -1.02471602272163        1.38490116397337       -2.73011666089728
H           -0.69908132376693        1.62450824395766        0.69913496688337
H            0.66523774501587        1.98412929004611       -0.99717628352089
H            2.13579933445479       -0.68778072022851        0.71972727411989
H            2.29360758152518        0.96536903356543        0.10215253894259
H            2.74888167376346        0.05413725205095       -2.18270043426871
H            2.68170378184780       -1.59163047938093       -1.53658580317342
H            4.60790040771824        1.54950431322627       -1.58051542664678
H            6.90335521041255        1.76341637851712       -0.78069329921055
H            8.62921432842073        1.81871345926359        0.80970055626709
H            9.17850736183947        1.14768235632947       -0.75331432464409
H           10.02393507083187        0.71264236039067        0.75268022204572
H            7.03391682461550       -4.23959339887726        1.65667809481747
H            5.41984306799261       -3.50021525633256        1.79375532601382
H            6.00584865109699       -4.08736676037810        0.21040083688506
H            4.39747767987910       -2.40632326275136       -0.02728964263563
H           -0.21451209606451       -1.65213344742127       -1.65390458332693
H           -1.03270383348442       -1.24557609347781       -0.13632718486779
H            0.53576338100532       -2.06928214889278       -0.10189642754141
H           -4.65074695228984        2.95250392903713       -0.18346928631785
H           -3.77630973010902        2.92795119311049        2.72998112233787
H           -4.89432546600909        1.77231085563948        1.98899101748429
H           -5.34116578225377        3.47253252529418        2.12406439834520
H           -2.62564810466584        4.68937767727262        1.27804272369408
H           -3.04411807499624        4.80625425544839       -0.43945503910142
H           -4.24347133974058        5.18832799571695        0.78956282605758
H           -0.56369200022604        2.79589063634523        2.71425715883553
72
 energy: -6.995523674662 xtb: 6.6.1 (8d0f1dd)
N           -1.45694825130332        2.87071206968822        2.26159503442860
C           -1.55273414949373        2.16061626694583        1.21933028701354
C           -2.74284127070470        2.06637513896865        0.29885412560364
C           -3.31666559419412        0.66206660342985        0.37363908204465
C           -4.27599258817912        0.25513890696566       -0.54941737875713
C           -4.80205690871956       -1.02082442320449       -0.52479996485834
O           -5.72481483419638       -1.49819159442071       -1.40825711519294
C           -6.25968254407451       -0.60854080274184       -2.35322424344350
C           -4.37829644640671       -1.93645149504180        0.46170003492785
O           -4.94337739019708       -3.17653824004353        0.39809279011600
C           -4.62409815655085       -4.10092431285614        1.40341475053798
C           -3.44230601900472       -1.52559289914850        1.39018953274793
C           -2.91862108430128       -0.23901607361919        1.34259484553231
C           -2.17536843385468        2.30287371552499       -1.12898897492318
C           -1.25935388485113        1.18685639383729       -1.68034923702859
C            0.03046478874035        1.11893020698331       -0.94766616194212
N            0.62512472973058       -0.07424439148639       -0.56172909424410
C            2.00235897465395       -0.07870308404909       -0.18225808287276
C            2.92876266159090       -0.57347550146377       -1.32159445527909
C            4.35320886319826       -0.45771797756685       -0.88646867962348
C            5.05924306264754        0.71166972182752       -1.08447024880360
C            6.35812011873427        0.83673609677810       -0.62241365707327
C            6.97221750169335       -0.21007487820086        0.04181434987554
O            8.24791039136198       -0.19430585343785        0.52614310350681
C            9.03204655298982        0.94957080866822        0.30759425795774
C            6.25598228159051       -1.40798455295214        0.25646064644923
O            6.92815795624938       -2.38401518885339        0.93215164467585
C            6.28231888510310       -3.60976460076796        1.14971563311005
C            4.95981232815710       -1.51094327846208       -0.20485669135465
C           -0.07132329313163       -1.32999934810002       -0.62343380866604
C           -3.88802150335811        3.07919320829459        0.59527162686503
C           -4.53363958060177        2.80367272958667        1.94961622049261
C           -3.42642251363076        4.53316305822754        0.54224216142113
H           -4.59628675308528        0.95112880519441       -1.30508623647795
H           -6.73234038428942        0.25569235951232       -1.87558227660310
H           -7.01075993524945       -1.17592258832511       -2.90026298883443
H           -5.49861030931982       -0.25505928941256       -3.05439516741266
H           -4.87671524501897       -3.72551483512293        2.39775240013387
H           -5.22361744949447       -4.98524360056491        1.19533753420998
H           -3.56339104740058       -4.36959760951085        1.38018813473416
H           -3.11116430637565       -2.19383374003323        2.17157230834598
H           -2.20749058781719        0.06024852120381        2.09734091258865
H           -3.01221313164559        2.43028023293882       -1.81358603468670
H           -1.61478933948705        3.23799077848475       -1.11004219867316
H           -1.78047804977106        0.23244763289132       -1.65010719845261
H           -1.05241706748993        1.40051972567560       -2.74314234289790
H           -0.71330542564430        1.59404463075302        0.76141455891304
H            0.69393370441311        1.96461996437893       -1.05326835794862
H            2.15066593006488       -0.71538728694116        0.70013362856897
H            2.28745970975631        0.94077395205392        0.09058773203187
H            2.73585713533594        0.03773143149450       -2.20634405851114
H            2.68177258702746       -1.60868573103747       -1.56404283040548
H            4.59527303356294        1.53734245231774       -1.60129749591103
H            6.88082600336391        1.76666597391276       -0.77838853649525
H            8.60674236723467        1.82819162787105        0.80234981918427
H            9.15559908588799        1.15681482340925       -0.76074939762448
H           10.00819393795947        0.73272726235765        0.74348511672460
H            7.01086628329656       -4.24185476174633        1.65703610250394
H            5.40067783392282       -3.49277894237123        1.78817418787593
H            5.98881132720759       -4.08283311362025        0.20662166549312
H            4.39351027953387       -2.41540184597369       -0.04879566731542
H           -0.20867403341101       -1.68372000944567       -1.65325523467364
H           -1.06073442807492       -1.24628930480471       -0.16334222156712
H            0.49749146512641       -2.08235466233535       -0.07622626190079
H           -4.64858842766239        2.93144239667321       -0.18258741506290
H           -3.80546299520991        2.95564700876823        2.73779986479444
H           -4.91563218114349        1.78731891929118        2.00065564782425
H           -5.36243924139650        3.48929758559971        2.11394793255201
H           -2.65649122455517        4.70210373779424        1.28527644859388
H           -3.05014237432174        4.79487096719029       -0.44320460821422
H           -4.26593039126471        5.19059697637682        0.76543249175460
H           -0.53220086113069        2.83629079472289        2.72342282342055
72
 energy: -6.425538060377 xtb: 6.6.1 (8d0f1dd)
N           -1.42837046237657        2.91577953942180        2.27769394027379
C           -1.54962260509626        2.16754033067936        1.25889708865749
C           -2.73871019249217        2.06960178843816        0.32977129045986
C           -3.31482942777523        0.66703712352329        0.40081540028081
C           -4.25658558532109        0.25706276933134       -0.53672231224134
C           -4.77564207490686       -1.02173722642536       -0.52292667798196
O           -5.67640773117689       -1.50123501023744       -1.42903812029234
C           -6.19099533743164       -0.60875292940504       -2.38303034722738
C           -4.36709641552181       -1.93485538537789        0.47186157490919
O           -4.91859181943666       -3.18057846618397        0.39496014652911
C           -4.60470385175483       -4.10247868125932        1.40316554444915
C           -3.45265137818405       -1.51915649007322        1.41921388016958
C           -2.93414663251512       -0.23070652900309        1.37955344126850
C           -2.16343359035772        2.30566898698440       -1.09741292705996
C           -1.25771926461463        1.19288093341829       -1.68629335363208
C            0.04753843154619        1.10827923510465       -0.98467971760437
N            0.61770215853475       -0.09170530714661       -0.56718096652131
C            1.99866319455452       -0.10319334272216       -0.19918551177964
C            2.92333416801128       -0.58999346203078       -1.34571843913657
C            4.34716035779385       -0.47009771659572       -0.91021403325056
C            5.04700694972751        0.70266913529630       -1.10385331960773
C            6.34096165192102        0.83424983670143       -0.63227138161685
C            6.95699509626528       -0.21016045490712        0.03372325212528
O            8.23133291851184       -0.18653940026256        0.52219868917721
C            9.01229256698748        0.95971455299303        0.30027533606553
C            6.24537094240280       -1.41125835812671        0.24529167829330
O            6.91402737954360       -2.38459215801866        0.92871610893944
C            6.26481562636934       -3.60793425247688        1.14700460333265
C            4.95384870821670       -1.52004540152525       -0.22491833160982
C           -0.08849945631021       -1.34309474725577       -0.62618767773347
C           -3.89357924343662        3.07995820467652        0.60557122088953
C           -4.55397663431349        2.81795388540948        1.95367602840163
C           -3.44146092839592        4.53603067341060        0.53828262843406
H           -4.56298955021560        0.95218785147340       -1.29843466755657
H           -6.67487115712599        0.25389880042230       -1.91445883291523
H           -6.92823346347561       -1.17247509605554       -2.95255151976578
H           -5.41425631183307       -0.25072508885509       -3.06319677448944
H           -4.87598546445140       -3.73658997146237        2.39511237259183
H           -5.18981801708925       -4.99411484957338        1.18710164739244
H           -3.54056885191775       -4.35648341258156        1.39400157586246
H           -3.13344822670794       -2.18462622765848        2.20843234235577
H           -2.23985677359203        0.07387454593514        2.14793797982385
H           -3.00183067646666        2.46016873284900       -1.77553092711095
H           -1.59035624524516        3.23278891374203       -1.06096157732802
H           -1.76763579714946        0.23192063142207       -1.66654085205017
H           -1.07902469296593        1.42335683871858       -2.75163328050779
H           -0.72713564663488        1.56168630415278        0.82425535709236
H            0.72722553559956        1.93815725182827       -1.10773942141635
H            2.15747668377021       -0.74381429464361        0.67900755754759
H            2.28132050059560        0.91568058860693        0.07927040320942
H            2.72488774739010        0.02313643863636       -2.22849810213521
H            2.68052200275838       -1.62517388815342       -1.59168388384424
H            4.58087497649909        1.52621856067368       -1.62152850215005
H            6.85786329237230        1.76864949401984       -0.77973761945644
H            8.58451442485457        1.83696199491465        0.79456439350331
H            9.13287282491523        1.16537831400376       -0.76865872570592
H            9.99210293925875        0.75120430748854        0.73384388688766
H            6.98862161280349       -4.24351230081239        1.65741102383641
H            5.38215443796642       -3.48557124953724        1.78255024207652
H            5.97203085802261       -4.07977609637640        0.20322867387003
H            4.38862371415533       -2.42500433932988       -0.06977224698157
H           -0.20459672123232       -1.71553914664806       -1.65267583150526
H           -1.08721562303775       -1.24484043922291       -0.18948650412251
H            0.45888816117654       -2.09222227968775       -0.05146012037499
H           -4.64408224508452        2.91515727031257       -0.17860524520982
H           -3.83513856629163        2.98241426027057        2.74670746680443
H           -4.93718664407578        1.80239549357825        2.01217868353131
H           -5.38416300822865        3.50588803130957        2.10227588347835
H           -2.68516285468948        4.71744393891831        1.29119660655689
H           -3.05442870218782        4.78294329365559       -0.44649523945339
H           -4.28741037126292        5.19301287061907        0.74030672998166
H           -0.49147989381623        2.85275554044593        2.73623260099390
72
 energy: -5.363846129388 xtb: 6.6.1 (8d0f1dd)
N           -1.39973153610691        2.94645730037410        2.30454793832687
C           -1.54409783976770        2.17181392888021        1.30276175558081
C           -2.73296545332224        2.07294461062687        0.36186396977322
C           -3.31229676920627        0.67192186499825        0.42734587032410
C           -4.23585124483427        0.25842355147247       -0.52535953800580
C           -4.74848849398999       -1.02295432842528       -0.52192994896260
O           -5.62776704991883       -1.50406905561179       -1.44924871475462
C           -6.12240144220347       -0.60953670218542       -2.41257794524909
C           -4.35509704249469       -1.93359288554150        0.48120326612881
O           -4.89357509259304       -3.18429903695062        0.39261186175838
C           -4.58493038252247       -4.10404496086473        1.40349740987952
C           -3.46276347360938       -1.51283405553995        1.44703138614842
C           -2.94928483968016       -0.22261436620909        1.41521116152586
C           -2.15046830581561        2.30896432952778       -1.06520479265435
C           -1.25697290956344        1.19999522459039       -1.69213924375885
C            0.06187820322439        1.09637335896949       -1.02096136927769
N            0.60909380244389       -0.10869986102302       -0.57788574467919
C            1.99285264680895       -0.12704179331115       -0.21650659282357
C            2.91538976129340       -0.60628701163046       -1.36953542373390
C            4.33829056295596       -0.48179708494695       -0.93318659987690
C            5.03252633028956        0.69439322685333       -1.12246057613553
C            6.32243193899435        0.83202762677117       -0.64250405801664
C            6.94031108121021       -0.20973749473326        0.02596704443103
O            8.21348552948607       -0.17917339927886        0.51823509725850
C            8.99174669407619        0.96925293303044        0.29343753124135
C            6.23260545566424       -1.41371980695555        0.23504038562928
O            6.89899267063975       -2.38451330564742        0.92476050958686
C            6.24716407528549       -3.60593758562228        1.14476757900168
C            4.94527931653756       -1.52848166974734       -0.24398835239032
C           -0.10501462777462       -1.35594480031390       -0.62981047901775
C           -3.89667540132327        3.08102438740607        0.61765344421671
C           -4.57204162352500        2.83264835555271        1.95928848933502
C           -3.45493380943537        4.53912551998370        0.53533771117274
H           -4.52890696336833        0.95219761185867       -1.29314222142355
H           -6.61776806204493        0.25171878157210       -1.95395013375360
H           -6.84522696217893       -1.17066247808113       -3.00317305000492
H           -5.33076308372394       -0.24747693793597       -3.07213301422453
H           -4.87462398681136       -3.74748487199529        2.39276946886535
H           -5.15565335281306       -5.00267428174947        1.17906835688911
H           -3.51767646756668       -4.34333636233986        1.40857606045091
H           -3.15629374335587       -2.17540265211085        2.24411397469520
H           -2.27151698954759        0.08707755068428        2.19620549439513
H           -2.98848466006517        2.48851465496091       -1.73795463524229
H           -1.56535749248538        3.22761848395150       -1.01222320646289
H           -1.75704233847433        0.23294097784201       -1.68393108784093
H           -1.10684341108135        1.44919041127403       -2.75841540055709
H           -0.74199710628420        1.52566690341315        0.88774972590074
H            0.75909849531831        1.90878454133824       -1.16395286525316
H            2.15843387611684       -0.77271402734684        0.65701796928058
H            2.27539873304629        0.89043959380427        0.06809685967459
H            2.71205162828609        0.00848843024172       -2.25042335657447
H            2.67759565478568       -1.64158097431377       -1.61916308091084
H            4.56450546561204        1.51601375420479       -1.64122283733354
H            6.83452597363732        1.76978290530387       -0.78440091990628
H            8.56201211924812        1.84558875315882        0.78710605133035
H            9.11004903151009        1.17342983538868       -0.77599428909392
H            9.97442018175835        0.76817454493821        0.72516999764343
H            6.96668923945707       -4.24389722516538        1.65871634314874
H            5.36337546501199       -3.47858702042662        1.77739570060755
H            5.95522192602968       -4.07782497881951        0.20083991038040
H            4.38172944857856       -2.43441832197228       -0.09007783034026
H           -0.20036117780879       -1.74821447734269       -1.65170574770742
H           -1.11203763305504       -1.24314175941896       -0.21670997246871
H            0.42125501665669       -2.09967524699367       -0.02727587657920
H           -4.63792308002930        2.89979509428400       -0.17187095980962
H           -3.86268362419726        3.00815854621978        2.75830967114695
H           -4.95713220715852        1.81814769331630        2.02400972894149
H           -5.40351068999803        3.52277540819401        2.09173765477995
H           -2.71181266766571        4.73662791244212        1.29676967106038
H           -3.05639308266733        4.77043689180923       -0.44817482172588
H           -4.30806222690136        5.19387614142243        0.71593536114729
H           -0.46617053769347        2.87625398606346        2.77718454128849
72
 energy: -3.736595427284 xtb: 6.6.1 (8d0f1dd)
N           -1.35118597456777        2.96139526405953        2.33214153228847
C           -1.53715540719064        2.17173424539545        1.34394279892713
C           -2.72721557201777        2.07617486500196        0.39403464462784
C           -3.30968588848598        0.67642268103969        0.45327765135897
C           -4.21432941354491        0.25931273380115       -0.51490578688513
C           -4.72067529577464       -1.02451010727874       -0.52143059196552
O           -5.57866653329541       -1.50695446335377       -1.46876089836851
C           -6.05327585302538       -0.61085335209820       -2.44147799331550
C           -4.34248983754140       -1.93239857230901        0.49026937388043
O           -4.86837070000254       -3.18763609811122        0.39143142133787
C           -4.56538583827689       -4.10573038539675        1.40492035760409
C           -3.47306139587051       -1.50641895422086        1.47440900164190
C           -2.96448424442940       -0.21456407611294        1.45030188042941
C           -2.13707959454110        2.31287704336541       -1.03265549724807
C           -1.25749989739976        1.20841259261566       -1.69673286591171
C            0.07503170927319        1.08437477545528       -1.05804433033357
N            0.60042907715329       -0.12478277669214       -0.59233196922009
C            1.98601186337472       -0.15030970304147       -0.23446768263667
C            2.90635603007624       -0.62251835416987       -1.39312365657265
C            4.32813908321107       -0.49309902233341       -0.95554632880709