25
 energy: -42.143136998986 gnorm: 0.005062993061 xtb: 6.6.1 (8d0f1dd)
C            3.16290603624863        1.30176192026727        0.03433484765659
N            2.19304575642474        0.27729235000925        0.00860347273537
C            3.53823021192626       -0.13872433183796       -0.08539383305743
N            1.15755015996502       -2.27059374699494       -0.11831222445075
C            0.35431050561063       -1.29165075189666       -0.05043453727299
C            0.93891660969390        0.05635457924610        0.01905602879565
C            0.06123711393685        1.27592693976756        0.11032101556498
O            0.55983646814176        2.37342244427132        0.18618267170759
N           -1.27193995553037        1.01998269749429        0.08570864164918
C           -2.19983640677090        2.14213964482232        0.13472505839291
C           -1.86910586789626       -0.24391881173672        0.01059438163278
O           -3.06114367936468       -0.35428867005336       -0.01146632485708
N           -1.02088547463893       -1.34520700972482       -0.03181603555647
C           -1.65472300594748       -2.65671638967007       -0.09089538427325
H            3.28993287069144        1.82820998558439        0.97475059760550
H            3.84615697936334       -0.54399635503588       -1.04370153773936
H            3.20743212653079        1.95915412534199       -0.82760275960678
H            3.93986703892276       -0.67707199354242        0.76509661489930
H           -1.62405581931971        3.06222964485880        0.18598217986576
H           -2.82746436088442        2.13533574957657       -0.75605307598565
H           -2.84391812545267        2.04844771969792        1.00883629611643
H           -1.35836672420535       -3.25725590617356        0.77032175333367
H           -1.38371702576060       -3.16771097046396       -1.01579948732064
H           -2.73259805812601       -2.51118334052789       -0.06915785070964
H            0.75876414054066       -3.20370098167965       -0.16270889122583
