      -----------------------------------------------------------      
     |                   =====================                   |     
     |                           x T B                           |     
     |                   =====================                   |     
     |                         S. Grimme                         |     
     |          Mulliken Center for Theoretical Chemistry        |     
     |                    University of Bonn                     |     
      -----------------------------------------------------------      

   * xtb version 6.6.1 (8d0f1dd) compiled by 'conda@1efc2f54142f' on 2023-08-01

   xtb is free software: you can redistribute it and/or modify it under
   the terms of the GNU Lesser General Public License as published by
   the Free Software Foundation, either version 3 of the License, or
   (at your option) any later version.
   
   xtb is distributed in the hope that it will be useful,
   but WITHOUT ANY WARRANTY; without even the implied warranty of
   MERCHANTABILITY or FITNESS FOR A PARTICULAR PURPOSE.  See the
   GNU Lesser General Public License for more details.
   
   Cite this work as:
   * C. Bannwarth, E. Caldeweyher, S. Ehlert, A. Hansen, P. Pracht,
     J. Seibert, S. Spicher, S. Grimme, WIREs Comput. Mol. Sci., 2020, 11,
     e01493. DOI: 10.1002/wcms.1493
   
   for GFN2-xTB:
   * C. Bannwarth, S. Ehlert and S. Grimme., J. Chem. Theory Comput., 2019,
     15, 1652-1671. DOI: 10.1021/acs.jctc.8b01176
   for GFN1-xTB:
   * S. Grimme, C. Bannwarth, P. Shushkov, J. Chem. Theory Comput., 2017,
     13, 1989-2009. DOI: 10.1021/acs.jctc.7b00118
   for GFN0-xTB:
   * P. Pracht, E. Caldeweyher, S. Ehlert, S. Grimme, ChemRxiv, 2019, preprint.
     DOI: 10.26434/chemrxiv.8326202.v1
   for GFN-FF:
   * S. Spicher and S. Grimme, Angew. Chem. Int. Ed., 2020, 59, 15665-15673.
     DOI: 10.1002/anie.202004239
   
   for ALPB and GBSA implicit solvation:
   * S. Ehlert, M. Stahn, S. Spicher, S. Grimme, J. Chem. Theory Comput.,
     2021, 17, 4250-4261. DOI: 10.1021/acs.jctc.1c00471
   
   for DFT-D4:
   * E. Caldeweyher, C. Bannwarth and S. Grimme, J. Chem. Phys., 2017,
     147, 034112. DOI: 10.1063/1.4993215
   * E. Caldeweyher, S. Ehlert, A. Hansen, H. Neugebauer, S. Spicher,
     C. Bannwarth and S. Grimme, J. Chem. Phys., 2019, 150, 154122.
     DOI: 10.1063/1.5090222
   * E. Caldeweyher, J.-M. Mewes, S. Ehlert and S. Grimme, Phys. Chem. Chem. Phys.
     2020, 22, 8499-8512. DOI: 10.1039/D0CP00502A
   
   for sTDA-xTB:
   * S. Grimme and C. Bannwarth, J. Chem. Phys., 2016, 145, 054103.
     DOI: 10.1063/1.4959605
   
   in the mass-spec context:
   * V. Asgeirsson, C. Bauer and S. Grimme, Chem. Sci., 2017, 8, 4879.
     DOI: 10.1039/c7sc00601b
   * J. Koopman and S. Grimme, ACS Omega 2019, 4, 12, 15120-15133.
     DOI: 10.1021/acsomega.9b02011
   
   for metadynamics refer to:
   * S. Grimme, J. Chem. Theory Comput., 2019, 155, 2847-2862
     DOI: 10.1021/acs.jctc.9b00143
   
   for SPH calculations refer to:
   * S. Spicher and S. Grimme, J. Chem. Theory Comput., 2021, 17, 1701-1714
     DOI: 10.1021/acs.jctc.0c01306
   
   with help from (in alphabetical order)
   P. Atkinson, C. Bannwarth, F. Bohle, G. Brandenburg, E. Caldeweyher
   M. Checinski, S. Dohm, S. Ehlert, S. Ehrlich, I. Gerasimov, C. Hölzer
   A. Katbashev, J. Koopman, C. Lavigne, S. Lehtola, F. März, M. Müller,
   F. Musil, H. Neugebauer, J. Pisarek, C. Plett, P. Pracht, F. Pultar,
   J. Seibert, P. Shushkov, S. Spicher, M. Stahn, M. Steiner, T. Strunk,
   J. Stückrath, T. Rose, and J. Unsleber
   
 * started run on 2024/06/05 at 20:00:27.620     

           -------------------------------------------------
          |                Calculation Setup                |
           -------------------------------------------------

          program call               : xtb xtbopt.xyz --opt crude --input .xc2 --gfn2
          hostname                   : n-62-21-69
          coordinate file            : xtbopt.xyz
          omp threads                :                     1

   ID    Z sym.   atoms
    1    6 C      1, 3, 5-7, 10, 11, 14
    2    7 N      2, 4, 9, 13
    3    8 O      8, 12
    4    1 H      15-25
########################################################################
[WARNING] Please study the warnings concerning your input carefully
-1- readin_getIntValue: could not parse ''
########################################################################

           -------------------------------------------------
          |                 G F N 2 - x T B                 |
           -------------------------------------------------

        Reference                      10.1021/acs.jctc.8b01176
      * Hamiltonian:
        H0-scaling (s, p, d)           1.850000    2.230000    2.230000
        zeta-weighting                 0.500000
      * Dispersion:
        s8                             2.700000
        a1                             0.520000
        a2                             5.000000
        s9                             5.000000
      * Repulsion:
        kExp                           1.500000    1.000000
        rExp                           1.000000
      * Coulomb:
        alpha                          2.000000
        third order                    shell-resolved
        anisotropic                    true
        a3                             3.000000
        a5                             4.000000
        cn-shift                       1.200000
        cn-exp                         4.000000
        max-rad                        5.000000

q/qsh data taken from xtbrestart
CAMM data taken from xtbrestart

          ...................................................
          :                      SETUP                      :
          :.................................................:
          :  # basis functions                  67          :
          :  # atomic orbitals                  67          :
          :  # shells                           39          :
          :  # electrons                        74          :
          :  max. iterations                   250          :
          :  Hamiltonian                  GFN2-xTB          :
          :  restarted?                       true          :
          :  GBSA solvation                  false          :
          :  PC potential                    false          :
          :  electronic temp.         5000.0000000     K    :
          :  accuracy                    1.0000000          :
          :  -> integral cutoff          0.2500000E+02      :
          :  -> integral neglect         0.1000000E-07      :
          :  -> SCF convergence          0.1000000E-05 Eh   :
          :  -> wf. convergence          0.1000000E-03 e    :
          :  Broyden damping             0.4000000          :
          ...................................................

 iter      E             dE          RMSdq      gap      omega  full diag
   1    -42.6873218 -0.426873E+02  0.211E-05    2.34       0.0  T
   2    -42.6873218 -0.285638E-11  0.145E-05    2.34    1381.6  T
   3    -42.6873218 -0.311218E-11  0.749E-06    2.34    2669.1  T

   *** convergence criteria satisfied after 3 iterations ***

         #    Occupation            Energy/Eh            Energy/eV
      -------------------------------------------------------------
         1        2.0000           -0.9090975             -24.7378
       ...           ...                  ...                  ...
        31        1.9996           -0.6242820             -16.9876
        32        1.9993           -0.6163173             -16.7708
        33        1.9992           -0.6128525             -16.6766
        34        1.9962           -0.5891568             -16.0318
        35        1.9796           -0.5623327             -15.3019
        36        1.9424           -0.5455939             -14.8464
        37        1.8997           -0.5364477             -14.5975 (HOMO)
        38        0.1536           -0.4505098             -12.2590 (LUMO)
        39        0.0226           -0.4191096             -11.4046
        40        0.0083           -0.4031614             -10.9706
        41        0.0003           -0.3497206              -9.5164
        42        0.0001           -0.3283458              -8.9347
       ...           ...                  ...                  ...
        67                         10.5037697             285.8221
      -------------------------------------------------------------
                  HL-Gap            0.0859379 Eh            2.3385 eV
             Fermi-level           -0.4898827 Eh          -13.3304 eV

 SCC (total)                   0 d,  0 h,  0 min,  0.026 sec
 SCC setup                      ...        0 min,  0.000 sec (  1.218%)
 Dispersion                     ...        0 min,  0.000 sec (  1.586%)
 classical contributions        ...        0 min,  0.000 sec (  0.399%)
 integral evaluation            ...        0 min,  0.006 sec ( 24.671%)
 iterations                     ...        0 min,  0.006 sec ( 21.561%)
 molecular gradient             ...        0 min,  0.013 sec ( 49.890%)
 printout                       ...        0 min,  0.000 sec (  0.619%)

         :::::::::::::::::::::::::::::::::::::::::::::::::::::
         ::                     SUMMARY                     ::
         :::::::::::::::::::::::::::::::::::::::::::::::::::::
         :: total energy             -40.417266307840 Eh    ::
         :: gradient norm              8.791993397512 Eh/a0 ::
         :: HOMO-LUMO gap              2.338488433927 eV    ::
         ::.................................................::
         :: SCC energy               -42.687321792549 Eh    ::
         :: -> isotropic ES            0.144510965703 Eh    ::
         :: -> anisotropic ES         -0.008459775979 Eh    ::
         :: -> anisotropic XC          0.016874426789 Eh    ::
         :: -> dispersion             -0.023098844166 Eh    ::
         :: repulsion energy           2.269885037389 Eh    ::
         :: add. restraining           0.000000000000 Eh    ::
         :: total charge               1.000000000000 e     ::
         :::::::::::::::::::::::::::::::::::::::::::::::::::::

      ----------------------------------------------------------- 
     |                   =====================                   |
     |                        A N C O P T                        |
     |                   =====================                   |
     |               Approximate Normal Coordinate               |
     |                Rational Function Optimizer                |
      ----------------------------------------------------------- 

          ...................................................
          :                      SETUP                      :
          :.................................................:
          :   optimization level             crude          :
          :   max. optcycles                   200          :
          :   ANC micro-cycles                  20          :
          :   degrees of freedom                69          :
          :.................................................:
          :   RF solver                   davidson          :
          :   write xtbopt.log                true          :
          :   linear?                        false          :
          :   energy convergence         0.5000000E-03 Eh   :
          :   grad. convergence          0.1000000E-01 Eh/α :
          :   maxmium RF displ.          1.0000000          :
          :   Hlow (freq-cutoff)         0.1000000E-01      :
          :   Hmax (freq-cutoff)         5.0000000          :
          :   S6 in model hess.         20.0000000          :
          ...................................................

generating ANC from model Hessian ...
Using Lindh-Hessian (1995)
 Shifting diagonal of input Hessian by    7.5308551384714829E-003
 Lowest  eigenvalues of input Hessian
    0.000000    0.000000    0.000000    0.000000    0.000000    0.000000
    0.010000    0.010207    0.012514    0.014928    0.016497    0.017109
    0.018796    0.019492    0.023988    0.026432    0.028238    0.034290
 Highest eigenvalues
    2.145313    2.210157    2.255869    2.486360    4.027377    7.477130


........................................................................
.............................. CYCLE    1 ..............................
........................................................................

 iter      E             dE          RMSdq      gap      omega  full diag
   1    -42.6873218 -0.426873E+02  0.346E-06    2.34       0.0  T
   2    -42.6873218 -0.639488E-13  0.271E-06    2.34    7376.0  T
   3    -42.6873218 -0.213163E-12  0.106E-06    2.34   18890.8  T
     SCC iter.                  ...        0 min,  0.005 sec
     gradient                   ...        0 min,  0.013 sec
 * total energy  :   -40.4172663 Eh     change       -0.2344791E-12 Eh
   gradient norm :     8.7919934 Eh/α   predicted     0.0000000E+00 (-100.00%)
   displ. norm   :     0.8040397 α      lambda       -0.7040770E+01
   maximum displ.:     0.7785296 α      in ANC's #68, #57, #50, ...

........................................................................
.............................. CYCLE    2 ..............................
........................................................................

 iter      E             dE          RMSdq      gap      omega  full diag
   1    -42.6959873 -0.426960E+02  0.106E+00    1.70       0.0  T
   2    -42.7073646 -0.113772E-01  0.619E-01    2.44       1.0  T
   3    -42.7103764 -0.301186E-02  0.372E-01    2.09       1.0  T
   4    -42.7109170 -0.540555E-03  0.167E-01    2.18       1.0  T
   5    -42.7112450 -0.328004E-03  0.374E-02    2.15       1.0  T
   6    -42.7112598 -0.147719E-04  0.174E-02    2.16       1.1  T
   7    -42.7112624 -0.261046E-05  0.638E-03    2.16       3.1  T
   8    -42.7112628 -0.471471E-06  0.257E-03    2.16       7.8  T
   9    -42.7112629 -0.319517E-07  0.115E-03    2.16      17.4  T
  10    -42.7112629 -0.101805E-07  0.372E-04    2.16      53.8  T
  11    -42.7112629 -0.939572E-09  0.142E-04    2.16     141.2  T
     SCC iter.                  ...        0 min,  0.015 sec
     gradient                   ...        0 min,  0.013 sec
 * total energy  :   -42.1199514 Eh     change       -0.1702685E+01 Eh
   gradient norm :     0.2968763 Eh/α   predicted    -0.5808379E+01 ( 241.13%)
   displ. norm   :     0.3507479 α      lambda       -0.6234046E-01
   maximum displ.:     0.1817071 α      in ANC's #57, #6, #11, ...

........................................................................
.............................. CYCLE    3 ..............................
........................................................................

 iter      E             dE          RMSdq      gap      omega  full diag
   1    -42.6703760 -0.426704E+02  0.505E-01    2.48       0.0  T
   2    -42.6769073 -0.653123E-02  0.450E-01    1.92       1.0  T
   3    -42.6805282 -0.362097E-02  0.178E-01    2.19       1.0  T
   4    -42.6803384  0.189801E-03  0.142E-01    2.12       1.0  T
   5    -42.6805611 -0.222704E-03  0.373E-02    2.16       1.0  T
   6    -42.6805855 -0.244018E-04  0.127E-02    2.18       1.6  T
   7    -42.6805884 -0.288607E-05  0.501E-03    2.18       4.0  T
   8    -42.6805885 -0.652314E-07  0.235E-03    2.18       8.5  T
   9    -42.6805885 -0.449848E-07  0.102E-03    2.18      19.5  T
  10    -42.6805885 -0.395026E-08  0.318E-04    2.18      62.9  T
  11    -42.6805885 -0.105695E-08  0.118E-04    2.18     169.3  T
     SCC iter.                  ...        0 min,  0.015 sec
     gradient                   ...        0 min,  0.013 sec
 * total energy  :   -42.1429607 Eh     change       -0.2300932E-01 Eh
   gradient norm :     0.0899396 Eh/α   predicted    -0.3503863E-01 (  52.28%)
   displ. norm   :     0.2207545 α      lambda       -0.7734831E-02
   maximum displ.:     0.0874860 α      in ANC's #5, #12, #19, ...

........................................................................
.............................. CYCLE    4 ..............................
........................................................................

 iter      E             dE          RMSdq      gap      omega  full diag
   1    -42.6870236 -0.426870E+02  0.219E-01    2.27       0.0  T
   2    -42.6870813 -0.576718E-04  0.131E-01    2.28       1.0  T
   3    -42.6870648  0.164974E-04  0.457E-02    2.27       1.0  T
   4    -42.6870921 -0.272900E-04  0.798E-03    2.27       2.5  T
   5    -42.6870931 -0.942820E-06  0.411E-03    2.27       4.9  T
   6    -42.6870931 -0.808839E-07  0.167E-03    2.27      12.0  T
   7    -42.6870931 -0.128112E-07  0.617E-04    2.27      32.4  T
   8    -42.6870932 -0.455611E-08  0.310E-04    2.27      64.4  T
     SCC iter.                  ...        0 min,  0.011 sec
     gradient                   ...        0 min,  0.013 sec
 * total energy  :   -42.1486985 Eh     change       -0.5737773E-02 Eh
   gradient norm :     0.0691849 Eh/α   predicted    -0.4055899E-02 ( -29.31%)
   displ. norm   :     0.2088171 α      lambda       -0.4581608E-02
   maximum displ.:     0.0667154 α      in ANC's #5, #38, #2, ...

........................................................................
.............................. CYCLE    5 ..............................
........................................................................

 iter      E             dE          RMSdq      gap      omega  full diag
   1    -42.6895809 -0.426896E+02  0.221E-01    2.33       0.0  T
   2    -42.6896238 -0.429161E-04  0.129E-01    2.34       1.0  T
   3    -42.6896063  0.175209E-04  0.411E-02    2.33       1.0  T
   4    -42.6896323 -0.260357E-04  0.746E-03    2.34       2.7  T
   5    -42.6896331 -0.802347E-06  0.411E-03    2.33       4.9  T
   6    -42.6896332 -0.891817E-07  0.169E-03    2.34      11.8  T
   7    -42.6896332 -0.178184E-07  0.566E-04    2.33      35.4  T
   8    -42.6896332 -0.430556E-08  0.254E-04    2.33      78.7  T
     SCC iter.                  ...        0 min,  0.011 sec
     gradient                   ...        0 min,  0.013 sec
 * total energy  :   -42.1511213 Eh     change       -0.2422776E-02 Eh
   gradient norm :     0.0561882 Eh/α   predicted    -0.2390709E-02 (  -1.32%)
   displ. norm   :     0.1039357 α      lambda       -0.8413477E-03
   maximum displ.:     0.0480165 α      in ANC's #12, #1, #13, ...

........................................................................
.............................. CYCLE    6 ..............................
........................................................................

 iter      E             dE          RMSdq      gap      omega  full diag
   1    -42.6890879 -0.426891E+02  0.103E-01    2.36       0.0  T
   2    -42.6890986 -0.106952E-04  0.615E-02    2.33       1.0  T
   3    -42.6890901  0.851220E-05  0.293E-02    2.36       1.0  T
   4    -42.6891031 -0.129696E-04  0.421E-03    2.34       4.8  T
   5    -42.6891034 -0.377182E-06  0.156E-03    2.34      12.8  T
   6    -42.6891034 -0.848701E-08  0.775E-04    2.34      25.8  T
   7    -42.6891034 -0.245123E-08  0.197E-04    2.34     101.4  T
     SCC iter.                  ...        0 min,  0.010 sec
     gradient                   ...        0 min,  0.013 sec
 * total energy  :   -42.1515772 Eh     change       -0.4559173E-03 Eh
   gradient norm :     0.0522066 Eh/α   predicted    -0.4252194E-03 (  -6.73%)
   displ. norm   :     0.0983403 α      lambda       -0.8606394E-03
   maximum displ.:     0.0368188 α      in ANC's #1, #2, #4, ...

........................................................................
.............................. CYCLE    7 ..............................
........................................................................

 iter      E             dE          RMSdq      gap      omega  full diag
   1    -42.6879668 -0.426880E+02  0.681E-02    2.35       0.0  T
   2    -42.6879990 -0.322290E-04  0.407E-02    2.30       1.0  T
   3    -42.6880121 -0.131369E-04  0.229E-02    2.32       1.0  T
   4    -42.6880133 -0.117594E-05  0.786E-03    2.31       2.5  T
   5    -42.6880146 -0.131537E-05  0.148E-03    2.32      13.5  T
   6    -42.6880147 -0.232037E-07  0.876E-04    2.32      22.8  T
   7    -42.6880147 -0.412233E-08  0.347E-04    2.32      57.6  T
     SCC iter.                  ...        0 min,  0.010 sec
     gradient                   ...        0 min,  0.013 sec
 * total energy  :   -42.1522873 Eh     change       -0.7100707E-03 Eh
   gradient norm :     0.0439071 Eh/α   predicted    -0.4344806E-03 ( -38.81%)
   displ. norm   :     0.1992858 α      lambda       -0.1856853E-02
   maximum displ.:     0.0980743 α      in ANC's #1, #4, #2, ...

........................................................................
.............................. CYCLE    8 ..............................
........................................................................

 iter      E             dE          RMSdq      gap      omega  full diag
   1    -42.6837152 -0.426837E+02  0.145E-01    2.30       0.0  T
   2    -42.6838882 -0.173037E-03  0.882E-02    2.18       1.0  T
   3    -42.6839769 -0.886579E-04  0.465E-02    2.24       1.0  T
   4    -42.6839780 -0.110883E-05  0.186E-02    2.22       1.1  T
   5    -42.6839854 -0.744258E-05  0.325E-03    2.23       6.1  T
   6    -42.6839856 -0.159749E-06  0.178E-03    2.23      11.2  T
   7    -42.6839856 -0.225676E-07  0.728E-04    2.23      27.5  T
   8    -42.6839856 -0.597359E-08  0.242E-04    2.23      82.6  T
     SCC iter.                  ...        0 min,  0.011 sec
     gradient                   ...        0 min,  0.013 sec
 * total energy  :   -42.1534497 Eh     change       -0.1162472E-02 Eh
   gradient norm :     0.0223278 Eh/α   predicted    -0.9652895E-03 ( -16.96%)
   displ. norm   :     0.1029817 α      lambda       -0.5643173E-03
   maximum displ.:     0.0505968 α      in ANC's #1, #4, #6, ...

........................................................................
.............................. CYCLE    9 ..............................
........................................................................

 iter      E             dE          RMSdq      gap      omega  full diag
   1    -42.6823047 -0.426823E+02  0.755E-02    2.22       0.0  T
   2    -42.6823488 -0.440967E-04  0.446E-02    2.15       1.0  T
   3    -42.6823758 -0.269763E-04  0.240E-02    2.19       1.0  T
   4    -42.6823765 -0.697151E-06  0.106E-02    2.18       1.9  T
   5    -42.6823788 -0.234183E-05  0.184E-03    2.18      10.9  T
   6    -42.6823788 -0.450115E-07  0.105E-03    2.18      19.1  T
   7    -42.6823788 -0.653350E-08  0.461E-04    2.18      43.4  T
   8    -42.6823788 -0.195325E-08  0.146E-04    2.18     137.4  T
     SCC iter.                  ...        0 min,  0.011 sec
     gradient                   ...        0 min,  0.013 sec
 * total energy  :   -42.1538457 Eh     change       -0.3959514E-03 Eh
   gradient norm :     0.0110386 Eh/α   predicted    -0.2851717E-03 ( -27.98%)
   displ. norm   :     0.0969271 α      lambda       -0.3631674E-03
   maximum displ.:     0.0422098 α      in ANC's #6, #1, #11, ...

........................................................................
.............................. CYCLE   10 ..............................
........................................................................

 iter      E             dE          RMSdq      gap      omega  full diag
   1    -42.6808782 -0.426809E+02  0.673E-02    2.16       0.0  T
   2    -42.6809024 -0.241754E-04  0.404E-02    2.12       1.0  T
   3    -42.6809173 -0.149612E-04  0.236E-02    2.15       1.0  T
   4    -42.6809192 -0.185994E-05  0.881E-03    2.13       2.3  T
   5    -42.6809210 -0.177662E-05  0.156E-03    2.14      12.8  T
   6    -42.6809210 -0.341446E-07  0.847E-04    2.14      23.6  T
   7    -42.6809210 -0.367018E-08  0.339E-04    2.14      59.0  T
     SCC iter.                  ...        0 min,  0.010 sec
     gradient                   ...        0 min,  0.013 sec
 * total energy  :   -42.1540709 Eh     change       -0.2252417E-03 Eh
   gradient norm :     0.0047355 Eh/α   predicted    -0.1832931E-03 ( -18.62%)
   displ. norm   :     0.0555827 α      lambda       -0.8863366E-04
   maximum displ.:     0.0325005 α      in ANC's #11, #14, #6, ...

   *** GEOMETRY OPTIMIZATION CONVERGED AFTER 10 ITERATIONS ***

------------------------------------------------------------------------
 total energy gain   :        -1.7368046 Eh    -1089.8614 kcal/mol
 total RMSD          :         0.2444313 a0        0.1293 Å
 total power (kW/mol):      -455.9979911 (step)********** (real)
------------------------------------------------------------------------

 ANCopt (total)                0 d,  0 h,  0 min,  0.308 sec
 optimizer setup                ...        0 min,  0.000 sec (  0.113%)
 model hessian                  ...        0 min,  0.009 sec (  2.851%)
 ANC generation                 ...        0 min,  0.001 sec (  0.278%)
 coordinate transformation      ...        0 min,  0.000 sec (  0.029%)
 single point calculation       ...        0 min,  0.294 sec ( 95.344%)
 optimization log               ...        0 min,  0.002 sec (  0.706%)
 hessian update                 ...        0 min,  0.000 sec (  0.040%)
 rational function              ...        0 min,  0.001 sec (  0.451%)

================
 final structure:
================
25
 xtb: 6.6.1 (8d0f1dd)
C            3.12153807736418        1.20145150771866       -0.13763063640080
N            2.14831874728044        0.14290996465593       -0.07056081473050
C            2.39791074841271       -1.13115565782183        0.20847619466268
N            1.24017201538447       -1.81707180329072        0.21565954204300
C            0.22396785218660       -0.94572117344843       -0.07423456210187
C            0.80602625913511        0.28812620566387       -0.27211229498897
C            0.08982943882589        1.55875149924023       -0.62730203677325
O            0.41473165601162        2.63818957194926       -0.15593714132191
N           -1.52883149410207        1.04044893700046        0.17193383330660
C           -2.18057207252662        2.01186485531367        0.68061405141351
C           -2.06926396060032       -0.26169079546452        0.09126702503960
O           -3.23954912841062       -0.50609279521067        0.17493204654675
N           -1.10741652291153       -1.25004574178207       -0.08263696277539
C           -1.53866698515399       -2.63586626268253       -0.12983845720737
H            3.88337954276709        1.05192196544852        0.62501316478549
H            3.59874133159778        1.22045371354986       -1.11899605443859
H            2.61637395550833        2.15393311863366        0.02639690195686
H            3.36583850904709       -1.55290089464454        0.39475672442524
H           -1.68549545653731        2.97549496834456        0.69294746601618
H           -0.37237673012954        1.48955574983718       -1.63862655416632
H           -3.17400994457963        1.89277401130233        1.09375776501826
H           -1.33178145331511       -3.14662305612419        0.81267088639306
H           -1.04927621309522       -3.15218972210108       -0.95500552795486
H           -2.61550533225173       -2.64190580580855       -0.29261825214485
H            1.14634867419166       -2.80637381867829        0.39824531129872

 Bond Distances (Angstroems)
 ---------------------------
C1-N2=1.4395         C1-H15=1.0883        C1-H16=1.0914        C1-H17=1.0906        N2-C1=1.4395         N2-C3=1.3279         
N2-C6=1.3651         C3-N2=1.3279         C3-N4=1.3457         C3-H18=1.0721        N4-C3=1.3457         N4-C5=1.3697         
N4-H25=1.0104        C5-N4=1.3697         C5-C6=1.3785         C5-N13=1.3657        C6-N2=1.3651         C6-C5=1.3785         
C6-C7=1.5012         C7-C6=1.5012         C7-O8=1.2219         C7-N9=1.8782         C7-H20=1.1141        O8-C7=1.2219         
N9-C7=1.8782         N9-C10=1.2756        N9-C11=1.4121        C10-N9=1.2756        C10-H19=1.0834       C10-H21=1.0825       
C11-N9=1.4121        C11-O12=1.1985       C11-N13=1.3900       O12-C11=1.1985       N13-C5=1.3657        N13-C11=1.3900       
N13-C14=1.4521       C14-N13=1.4521       C14-H22=1.0918       C14-H23=1.0895       C14-H24=1.0891       H15-C1=1.0883        
H16-C1=1.0914        H17-C1=1.0906        H18-C3=1.0721        H19-C10=1.0834       H20-C7=1.1141        H21-C10=1.0825       
H22-C14=1.0918       H23-C14=1.0895       H24-C14=1.0891       H25-N4=1.0104        
 C  H  Rav=1.0893 sigma=0.0100  Rmin=1.0721  Rmax=1.1141    10
 C  C  Rav=1.4399 sigma=0.0613  Rmin=1.3785  Rmax=1.5012     2
 N  H  Rav=1.0104 sigma=0.0000  Rmin=1.0104  Rmax=1.0104     1
 N  C  Rav=1.4202 sigma=0.1524  Rmin=1.2756  Rmax=1.8782    11
 O  C  Rav=1.2102 sigma=0.0117  Rmin=1.1985  Rmax=1.2219     2

 selected bond angles (degree)
 --------------------
H15-C1-N2=109.85               H16-C1-N2=110.51               H16-C1-H15=109.05              H17-C1-N2=108.79               
H17-C1-H15=109.81              H17-C1-H16=108.82              C3-N2-C1=126.03                C6-N2-C1=125.43                
C6-N2-C3=108.54                N4-C3-N2=109.17                H18-C3-N2=125.71               H18-C3-N4=125.12               
C5-N4-C3=108.23                H25-N4-C3=125.45               H25-N4-C5=126.32               C6-C5-N4=106.65                
N13-C5-N4=125.65               N13-C5-C6=127.60               C5-C6-N2=107.38                C7-C6-N2=126.45                
C7-C6-C5=126.16                O8-C7-C6=121.98                N9-C7-C6= 94.41                N9-C7-O8=107.99                
H20-C7-C6=111.11               H20-C7-O8=121.02               H20-C7-N9= 90.66               C10-N9-C7=113.57               
C11-N9-C7=124.05               C11-N9-C10=121.97              H19-C10-N9=116.64              H21-C10-N9=122.50              
H21-C10-H19=120.85             

 selected dihedral angles (degree)
 ---------------------------------
C3-N2-C1-H15=323.37           C3-N2-C1-H16= 83.74           C3-N2-C1-H17=203.15           C6-N2-C1-H15=142.69           
C6-N2-C1-H16=263.06           C6-N2-C1-H17= 22.46           N4-C3-N2-C1=178.36            N4-C3-N2-C6=358.95            
H18-C3-N2-C1=358.10           H18-C3-N2-C6=178.69           C5-N4-C3-N2=  0.23            C5-N4-C3-H18=180.50           
H25-N4-C3-N2=179.85           H25-N4-C3-H18=  0.11          C6-C5-N4-C3=  0.66            C6-C5-N4-H25=181.05           
N13-C5-N4-C3=184.06           N13-C5-N4-H25=  4.46          C5-C6-N2-C1=182.03            C5-C6-N2-C3=  1.45            
C7-C6-N2-C1=  1.35            C7-C6-N2-C3=180.76            N2-C6-C5-N4=358.72            N2-C6-C5-N13=175.23           
C7-C6-C5-N4=179.40            C7-C6-C5-N13=355.91           O8-C7-C6-N2=322.19            O8-C7-C6-C5=141.39            
N9-C7-C6-N2=207.78            N9-C7-C6-C5= 26.98            H20-C7-C6-N2=115.36           H20-C7-C6-C5=294.55           
H19-C10-N9-C7=353.33          H19-C10-N9-C11=180.37         H21-C10-N9-C7=174.04          H21-C10-N9-C11=  1.08         
           -------------------------------------------------
          |                Final Singlepoint                |
           -------------------------------------------------

          ...................................................
          :                      SETUP                      :
          :.................................................:
          :  # basis functions                  67          :
          :  # atomic orbitals                  67          :
          :  # shells                           39          :
          :  # electrons                        74          :
          :  max. iterations                   250          :
          :  Hamiltonian                  GFN2-xTB          :
          :  restarted?                      false          :
          :  GBSA solvation                  false          :
          :  PC potential                    false          :
          :  electronic temp.         5000.0000000     K    :
          :  accuracy                    1.0000000          :
          :  -> integral cutoff          0.2500000E+02      :
          :  -> integral neglect         0.1000000E-07      :
          :  -> SCF convergence          0.1000000E-05 Eh   :
          :  -> wf. convergence          0.1000000E-03 e    :
          :  Broyden damping             0.4000000          :
          ...................................................

 iter      E             dE          RMSdq      gap      omega  full diag
   1    -42.6809210 -0.426809E+02  0.908E-05    2.14       0.0  T
   2    -42.6809210 -0.317968E-10  0.580E-05    2.14     344.7  T
   3    -42.6809210 -0.178204E-10  0.374E-05    2.14     534.8  T

   *** convergence criteria satisfied after 3 iterations ***

         #    Occupation            Energy/Eh            Energy/eV
      -------------------------------------------------------------
         1        2.0000           -0.9108650             -24.7859
       ...           ...                  ...                  ...
        31        1.9995           -0.6207179             -16.8906
        32        1.9994           -0.6171321             -16.7930
        33        1.9992           -0.6128792             -16.6773
        34        1.9963           -0.5877746             -15.9942
        35        1.9789           -0.5602336             -15.2447
        36        1.9504           -0.5464316             -14.8692
        37        1.8669           -0.5301268             -14.4255 (HOMO)
        38        0.1794           -0.4516155             -12.2891 (LUMO)
        39        0.0257           -0.4195449             -11.4164
        40        0.0049           -0.3933059             -10.7024
        41        0.0001           -0.3295795              -8.9683
        42        0.0001           -0.3249592              -8.8426
       ...           ...                  ...                  ...
        67                          0.5382806              14.6474
      -------------------------------------------------------------
                  HL-Gap            0.0785113 Eh            2.1364 eV
             Fermi-level           -0.4883061 Eh          -13.2875 eV

 SCC (total)                   0 d,  0 h,  0 min,  0.023 sec
 SCC setup                      ...        0 min,  0.000 sec (  0.818%)
 Dispersion                     ...        0 min,  0.000 sec (  0.816%)
 classical contributions        ...        0 min,  0.000 sec (  0.302%)
 integral evaluation            ...        0 min,  0.005 sec ( 21.921%)
 iterations                     ...        0 min,  0.005 sec ( 20.032%)
 molecular gradient             ...        0 min,  0.013 sec ( 55.531%)
 printout                       ...        0 min,  0.000 sec (  0.522%)

         :::::::::::::::::::::::::::::::::::::::::::::::::::::
         ::                     SUMMARY                     ::
         :::::::::::::::::::::::::::::::::::::::::::::::::::::
         :: total energy             -42.154070931410 Eh    ::
         :: gradient norm              0.004736338441 Eh/a0 ::
         :: HOMO-LUMO gap              2.136402131412 eV    ::
         ::.................................................::
         :: SCC energy               -42.680921014385 Eh    ::
         :: -> isotropic ES            0.143820181765 Eh    ::
         :: -> anisotropic ES         -0.007431708898 Eh    ::
         :: -> anisotropic XC          0.016981959049 Eh    ::
         :: -> dispersion             -0.023063547278 Eh    ::
         :: repulsion energy           0.526678672266 Eh    ::
         :: add. restraining           0.000000000000 Eh    ::
         :: total charge               1.000000000000 e     ::
         :::::::::::::::::::::::::::::::::::::::::::::::::::::

           -------------------------------------------------
          |                Property Printout                |
           -------------------------------------------------

    * Orbital Energies and Occupations

         #    Occupation            Energy/Eh            Energy/eV
      -------------------------------------------------------------
         1        2.0000           -0.9108650             -24.7859
       ...           ...                  ...                  ...
        25        2.0000           -0.6729468             -18.3118
        26        2.0000           -0.6666575             -18.1407
        27        1.9999           -0.6548527             -17.8194
        28        1.9998           -0.6351832             -17.2842
        29        1.9998           -0.6341247             -17.2554
        30        1.9997           -0.6258011             -17.0289
        31        1.9995           -0.6207179             -16.8906
        32        1.9994           -0.6171321             -16.7930
        33        1.9992           -0.6128792             -16.6773
        34        1.9963           -0.5877746             -15.9942
        35        1.9789           -0.5602336             -15.2447
        36        1.9504           -0.5464316             -14.8692
        37        1.8669           -0.5301268             -14.4255 (HOMO)
        38        0.1794           -0.4516155             -12.2891 (LUMO)
        39        0.0257           -0.4195449             -11.4164
        40        0.0049           -0.3933059             -10.7024
        41        0.0001           -0.3295795              -8.9683
        42        0.0001           -0.3249592              -8.8426
        43                         -0.1916846              -5.2160
        44                         -0.1855794              -5.0499
        45                         -0.1427222              -3.8837
        46                         -0.0792606              -2.1568
        47                         -0.0668704              -1.8196
        48                         -0.0462422              -1.2583
       ...                                ...                  ...
        67                          0.5382806              14.6474
      -------------------------------------------------------------
                  HL-Gap            0.0785113 Eh            2.1364 eV
             Fermi-level           -0.4883061 Eh          -13.2875 eV

     #   Z          covCN         q      C6AA      α(0)
     1   6 C        3.692    -0.094    22.484     6.785
     2   7 N        2.850     0.088    19.707     6.593
     3   6 C        3.053     0.047    26.891     8.505
     4   7 N        2.808    -0.056    22.318     7.017
     5   6 C        3.037     0.105    25.655     8.308
     6   6 C        3.108    -0.005    27.998     8.669
     7   6 C        3.343     0.210    21.362     7.302
     8   8 O        0.856    -0.388    21.447     6.209
     9   7 N        2.415    -0.131    23.952     7.267
    10   6 C        2.792     0.048    26.906     8.497
    11   6 C        2.731     0.327    21.440     7.581
    12   8 O        0.858    -0.340    20.519     6.073
    13   7 N        2.738    -0.059    22.381     7.026
    14   6 C        3.699    -0.072    22.045     6.715
    15   1 H        0.925     0.105     1.743     2.065
    16   1 H        0.924     0.108     1.709     2.045
    17   1 H        0.924     0.138     1.479     1.902
    18   1 H        0.926     0.125     1.574     1.962
    19   1 H        0.925     0.144     1.436     1.874
    20   1 H        0.921     0.061     2.190     2.314
    21   1 H        0.925     0.125     1.576     1.963
    22   1 H        0.924     0.080     1.981     2.201
    23   1 H        0.925     0.081     1.966     2.193
    24   1 H        0.925     0.123     1.589     1.971
    25   1 H        0.860     0.230     0.963     1.537

 Mol. C6AA /au·bohr⁶  :       6605.951493
 Mol. C8AA /au·bohr⁸  :     151761.574101
 Mol. α(0) /au        :        124.574153


Wiberg/Mayer (AO) data.
largest (>0.10) Wiberg bond orders for each atom

 ---------------------------------------------------------------------------
     #   Z sym  total        # sym  WBO       # sym  WBO       # sym  WBO
 ---------------------------------------------------------------------------
     1   6 C    3.914 --     2 N    0.984    15 H    0.968    17 H    0.957
                            16 H    0.955
     2   7 N    3.715 --     3 C    1.382     6 C    1.204     1 C    0.984
     3   6 C    3.890 --     2 N    1.382     4 N    1.297    18 H    0.952
     4   7 N    3.602 --     3 C    1.297     5 C    1.185    25 H    0.917
     5   6 C    3.936 --     6 C    1.422     4 N    1.185    13 N    1.141
     6   6 C    3.895 --     5 C    1.422     2 N    1.204     7 C    0.959
     7   6 C    3.941 --     8 O    1.627     6 C    0.959    20 H    0.888
                             9 N    0.392
     8   8 O    1.916 --     7 C    1.627     9 N    0.138
     9   7 N    3.421 --    10 C    1.747    11 C    1.010     7 C    0.392
                             8 O    0.138
    10   6 C    3.723 --     9 N    1.747    21 H    0.944    19 H    0.943
    11   6 C    3.919 --    12 O    1.728    13 N    1.096     9 N    1.010
    12   8 O    2.050 --    11 C    1.728    13 N    0.143
    13   7 N    3.519 --     5 C    1.141    11 C    1.096    14 C    0.975
                            12 O    0.143
    14   6 C    3.928 --    13 N    0.975    23 H    0.974    22 H    0.969
                            24 H    0.965
    15   1 H    0.988 --     1 C    0.968
    16   1 H    0.987 --     1 C    0.955
    17   1 H    0.980 --     1 C    0.957
    18   1 H    0.983 --     3 C    0.952
    19   1 H    0.976 --    10 C    0.943
    20   1 H    0.956 --     7 C    0.888
    21   1 H    0.978 --    10 C    0.944
    22   1 H    0.990 --    14 C    0.969
    23   1 H    0.990 --    14 C    0.974
    24   1 H    0.984 --    14 C    0.965
    25   1 H    0.946 --     4 N    0.917
 ---------------------------------------------------------------------------

Topologies differ in total number of bonds
Writing topology from bond orders to xtbtopo.mol

molecular dipole:
                 x           y           z       tot (Debye)
 q only:        2.234      -1.738       0.184
   full:        2.257      -2.160       0.179       7.954
molecular quadrupole (traceless):
                xx          xy          yy          xz          yz          zz
 q only:       10.385      -6.777       4.311      -1.360       0.839     -14.696
  q+dip:        9.499     -11.147       3.145      -1.420      -0.158     -12.644
   full:        8.725     -10.838       2.370      -1.330      -0.133     -11.095

           -------------------------------------------------
          |                Geometry Summary                 |
           -------------------------------------------------

      molecular mass/u    :      195.1988581
   center of mass at/Å    :       -0.1025803       0.0318713       0.0025304
  moments of inertia/u·Å² :        0.4791779E+03   0.7359147E+03   0.1173685E+04
rotational constants/cm⁻¹ :        0.3518032E-01   0.2290705E-01   0.1436300E-01

 * 23 selected distances

     #   Z          #   Z                                           value/Å
     1   6 C        2   7 N                                       1.4395016
     2   7 N        3   6 C                                       1.3279312
     3   6 C        4   7 N                                       1.3456938
     4   7 N        5   6 C                                       1.3696575
     2   7 N        6   6 C                                       1.3650862
     5   6 C        6   6 C                                       1.3785236
     7   6 C        8   8 O                                       1.2218564
     9   7 N       10   6 C                                       1.2756059
    11   6 C       12   8 O                                       1.1984573
     5   6 C       13   7 N                                       1.3657484
    11   6 C       13   7 N                                       1.3900500
    13   7 N       14   6 C                                       1.4521377 (max)
     1   6 C       15   1 H                                       1.0882956
     1   6 C       16   1 H                                       1.0914038
     1   6 C       17   1 H                                       1.0905582
     3   6 C       18   1 H                                       1.0721259
    10   6 C       19   1 H                                       1.0834372
     7   6 C       20   1 H                                       1.1140916
    10   6 C       21   1 H                                       1.0824922
    14   6 C       22   1 H                                       1.0917867
    14   6 C       23   1 H                                       1.0894926
    14   6 C       24   1 H                                       1.0890890
     4   7 N       25   1 H                                       1.0103757 (min)

 * 5 distinct bonds (by element types)

   Z      Z             #   av. dist./Å        max./Å        min./Å
   1 H    6 C          10     1.0892773     1.1140916     1.0721259
   6 C    6 C           1     1.3785236     1.3785236     1.3785236
   1 H    7 N           1     1.0103757     1.0103757     1.0103757
   6 C    7 N           9     1.3701569     1.4521377     1.2756059
   6 C    8 O           2     1.2101568     1.2218564     1.1984573


optimized geometry written to: xtbopt.xyz


           -------------------------------------------------
          | TOTAL ENERGY              -42.154070931410 Eh   |
          | GRADIENT NORM               0.004736338441 Eh/α |
          | HOMO-LUMO GAP               2.136402131412 eV   |
           -------------------------------------------------

------------------------------------------------------------------------
 * finished run on 2024/06/05 at 20:00:28.017     
------------------------------------------------------------------------
 total:
 * wall-time:     0 d,  0 h,  0 min,  0.397 sec
 *  cpu-time:     0 d,  0 h,  0 min,  0.371 sec
 * ratio c/w:     0.935 speedup
 SCF:
 * wall-time:     0 d,  0 h,  0 min,  0.026 sec
 *  cpu-time:     0 d,  0 h,  0 min,  0.026 sec
 * ratio c/w:     1.000 speedup
 ANC optimizer:
 * wall-time:     0 d,  0 h,  0 min,  0.337 sec
 *  cpu-time:     0 d,  0 h,  0 min,  0.331 sec
 * ratio c/w:     0.984 speedup

