      -----------------------------------------------------------      
     |                   =====================                   |     
     |                           x T B                           |     
     |                   =====================                   |     
     |                         S. Grimme                         |     
     |          Mulliken Center for Theoretical Chemistry        |     
     |                    University of Bonn                     |     
      -----------------------------------------------------------      

   * xtb version 6.6.1 (8d0f1dd) compiled by 'conda@1efc2f54142f' on 2023-08-01

   xtb is free software: you can redistribute it and/or modify it under
   the terms of the GNU Lesser General Public License as published by
   the Free Software Foundation, either version 3 of the License, or
   (at your option) any later version.
   
   xtb is distributed in the hope that it will be useful,
   but WITHOUT ANY WARRANTY; without even the implied warranty of
   MERCHANTABILITY or FITNESS FOR A PARTICULAR PURPOSE.  See the
   GNU Lesser General Public License for more details.
   
   Cite this work as:
   * C. Bannwarth, E. Caldeweyher, S. Ehlert, A. Hansen, P. Pracht,
     J. Seibert, S. Spicher, S. Grimme, WIREs Comput. Mol. Sci., 2020, 11,
     e01493. DOI: 10.1002/wcms.1493
   
   for GFN2-xTB:
   * C. Bannwarth, S. Ehlert and S. Grimme., J. Chem. Theory Comput., 2019,
     15, 1652-1671. DOI: 10.1021/acs.jctc.8b01176
   for GFN1-xTB:
   * S. Grimme, C. Bannwarth, P. Shushkov, J. Chem. Theory Comput., 2017,
     13, 1989-2009. DOI: 10.1021/acs.jctc.7b00118
   for GFN0-xTB:
   * P. Pracht, E. Caldeweyher, S. Ehlert, S. Grimme, ChemRxiv, 2019, preprint.
     DOI: 10.26434/chemrxiv.8326202.v1
   for GFN-FF:
   * S. Spicher and S. Grimme, Angew. Chem. Int. Ed., 2020, 59, 15665-15673.
     DOI: 10.1002/anie.202004239
   
   for ALPB and GBSA implicit solvation:
   * S. Ehlert, M. Stahn, S. Spicher, S. Grimme, J. Chem. Theory Comput.,
     2021, 17, 4250-4261. DOI: 10.1021/acs.jctc.1c00471
   
   for DFT-D4:
   * E. Caldeweyher, C. Bannwarth and S. Grimme, J. Chem. Phys., 2017,
     147, 034112. DOI: 10.1063/1.4993215
   * E. Caldeweyher, S. Ehlert, A. Hansen, H. Neugebauer, S. Spicher,
     C. Bannwarth and S. Grimme, J. Chem. Phys., 2019, 150, 154122.
     DOI: 10.1063/1.5090222
   * E. Caldeweyher, J.-M. Mewes, S. Ehlert and S. Grimme, Phys. Chem. Chem. Phys.
     2020, 22, 8499-8512. DOI: 10.1039/D0CP00502A
   
   for sTDA-xTB:
   * S. Grimme and C. Bannwarth, J. Chem. Phys., 2016, 145, 054103.
     DOI: 10.1063/1.4959605
   
   in the mass-spec context:
   * V. Asgeirsson, C. Bauer and S. Grimme, Chem. Sci., 2017, 8, 4879.
     DOI: 10.1039/c7sc00601b
   * J. Koopman and S. Grimme, ACS Omega 2019, 4, 12, 15120-15133.
     DOI: 10.1021/acsomega.9b02011
   
   for metadynamics refer to:
   * S. Grimme, J. Chem. Theory Comput., 2019, 155, 2847-2862
     DOI: 10.1021/acs.jctc.9b00143
   
   for SPH calculations refer to:
   * S. Spicher and S. Grimme, J. Chem. Theory Comput., 2021, 17, 1701-1714
     DOI: 10.1021/acs.jctc.0c01306
   
   with help from (in alphabetical order)
   P. Atkinson, C. Bannwarth, F. Bohle, G. Brandenburg, E. Caldeweyher
   M. Checinski, S. Dohm, S. Ehlert, S. Ehrlich, I. Gerasimov, C. Hölzer
   A. Katbashev, J. Koopman, C. Lavigne, S. Lehtola, F. März, M. Müller,
   F. Musil, H. Neugebauer, J. Pisarek, C. Plett, P. Pracht, F. Pultar,
   J. Seibert, P. Shushkov, S. Spicher, M. Stahn, M. Steiner, T. Strunk,
   J. Stückrath, T. Rose, and J. Unsleber
   
 * started run on 2024/04/06 at 11:13:08.330     

           -------------------------------------------------
          |                Calculation Setup                |
           -------------------------------------------------

          program call               : xtb xtbopt.xyz --opt crude --input .xc2 --gfn2
          hostname                   : n-62-30-23
          coordinate file            : xtbopt.xyz
          omp threads                :                     1

   ID    Z sym.   atoms
    1    7 N      1, 17
    2    6 C      2-6, 8, 9, 11-16, 18-23, 25, 26, 28-33
    3    8 O      7, 10, 24, 27
    4    1 H      34-72

molecular fragmentation (1/2 indicates fragments):
111111111111112222222222222222111111111111112212222222222222222211111111
# atoms in fragment 1/2:    37    35
 fragment masses (1/2) :      234.31      221.30
CMA distance (Bohr)    :  17.105
constraining FC (au)   :  0.0500
########################################################################
[WARNING] Please study the warnings concerning your input carefully
-1- readin_getIntValue: could not parse ''
########################################################################

           -------------------------------------------------
          |                 G F N 2 - x T B                 |
           -------------------------------------------------

        Reference                      10.1021/acs.jctc.8b01176
      * Hamiltonian:
        H0-scaling (s, p, d)           1.850000    2.230000    2.230000
        zeta-weighting                 0.500000
      * Dispersion:
        s8                             2.700000
        a1                             0.520000
        a2                             5.000000
        s9                             5.000000
      * Repulsion:
        kExp                           1.500000    1.000000
        rExp                           1.000000
      * Coulomb:
        alpha                          2.000000
        third order                    shell-resolved
        anisotropic                    true
        a3                             3.000000
        a5                             4.000000
        cn-shift                       1.200000
        cn-exp                         4.000000
        max-rad                        5.000000

q/qsh data taken from xtbrestart
CAMM data taken from xtbrestart

          ...................................................
          :                      SETUP                      :
          :.................................................:
          :  # basis functions                 171          :
          :  # atomic orbitals                 171          :
          :  # shells                          105          :
          :  # electrons                       180          :
          :  max. iterations                   250          :
          :  Hamiltonian                  GFN2-xTB          :
          :  restarted?                       true          :
          :  GBSA solvation                  false          :
          :  PC potential                    false          :
          :  electronic temp.         5000.0000000     K    :
          :  accuracy                    1.0000000          :
          :  -> integral cutoff          0.2500000E+02      :
          :  -> integral neglect         0.1000000E-07      :
          :  -> SCF convergence          0.1000000E-05 Eh   :
          :  -> wf. convergence          0.1000000E-03 e    :
          :  Broyden damping             0.4000000          :
          ...................................................

 iter      E             dE          RMSdq      gap      omega  full diag
   1   -100.7352348 -0.100735E+03  0.547E-05    0.83       0.0  T
   2   -100.7352348  0.447670E-09  0.815E-05    0.83     144.7  T
   3   -100.7352348 -0.420073E-09  0.407E-05    0.83     289.4  T

   *** convergence criteria satisfied after 3 iterations ***

         #    Occupation            Energy/Eh            Energy/eV
      -------------------------------------------------------------
         1        2.0000           -0.8144209             -22.1615
       ...           ...                  ...                  ...
        84        1.9924           -0.5144623             -13.9992
        85        1.9722           -0.4937889             -13.4367
        86        1.9672           -0.4911345             -13.3644
        87        1.8929           -0.4717821             -12.8378
        88        1.8239           -0.4633127             -12.6074
        89        1.7999           -0.4610807             -12.5466
        90        1.6936           -0.4533752             -12.3370 (HOMO)
        91        0.8879           -0.4227365             -11.5032 (LUMO)
        92        0.0072           -0.3372569              -9.1772
        93        0.0023           -0.3193401              -8.6897
        94        0.0019           -0.3161969              -8.6042
        95        0.0017           -0.3147877              -8.5658
       ...           ...                  ...                  ...
       171                          0.5717933              15.5593
      -------------------------------------------------------------
                  HL-Gap            0.0306387 Eh            0.8337 eV
             Fermi-level           -0.4263011 Eh          -11.6002 eV

 SCC (total)                   0 d,  0 h,  0 min,  0.119 sec
 SCC setup                      ...        0 min,  0.001 sec (  0.806%)
 Dispersion                     ...        0 min,  0.002 sec (  1.434%)
 classical contributions        ...        0 min,  0.000 sec (  0.374%)
 integral evaluation            ...        0 min,  0.018 sec ( 14.791%)
 iterations                     ...        0 min,  0.028 sec ( 23.119%)
 molecular gradient             ...        0 min,  0.070 sec ( 58.920%)
 printout                       ...        0 min,  0.001 sec (  0.540%)

         :::::::::::::::::::::::::::::::::::::::::::::::::::::
         ::                     SUMMARY                     ::
         :::::::::::::::::::::::::::::::::::::::::::::::::::::
         :: total energy             -99.330422952941 Eh    ::
         :: gradient norm              0.002649075137 Eh/a0 ::
         :: HOMO-LUMO gap              0.833721260416 eV    ::
         ::.................................................::
         :: SCC energy              -100.735234755447 Eh    ::
         :: -> isotropic ES            0.101546622706 Eh    ::
         :: -> anisotropic ES          0.006322934517 Eh    ::
         :: -> anisotropic XC          0.047575605564 Eh    ::
         :: -> dispersion             -0.072025032125 Eh    ::
         :: repulsion energy           1.403786879119 Eh    ::
         :: add. restraining           0.000000000000 Eh    ::
         :: total charge               1.000000000000 e     ::
         :::::::::::::::::::::::::::::::::::::::::::::::::::::

      ----------------------------------------------------------- 
     |                   =====================                   |
     |                        A N C O P T                        |
     |                   =====================                   |
     |               Approximate Normal Coordinate               |
     |                Rational Function Optimizer                |
      ----------------------------------------------------------- 

          ...................................................
          :                      SETUP                      :
          :.................................................:
          :   optimization level             crude          :
          :   max. optcycles                   200          :
          :   ANC micro-cycles                  20          :
          :   degrees of freedom               210          :
          :.................................................:
          :   RF solver                   davidson          :
          :   write xtbopt.log                true          :
          :   linear?                        false          :
          :   energy convergence         0.5000000E-03 Eh   :
          :   grad. convergence          0.1000000E-01 Eh/α :
          :   maxmium RF displ.          1.0000000          :
          :   Hlow (freq-cutoff)         0.1000000E-01      :
          :   Hmax (freq-cutoff)         5.0000000          :
          :   S6 in model hess.         20.0000000          :
          ...................................................

generating ANC from model Hessian ...
Using Lindh-Hessian (1995)
 Shifting diagonal of input Hessian by    1.0015988245018015E-002
 Lowest  eigenvalues of input Hessian
    0.010000    0.000000    0.000000    0.000000    0.000000    0.000000
    0.000000    0.010024    0.010072    0.010109    0.010165    0.010329
    0.010443    0.010504    0.010576    0.010657    0.010893    0.011008
 Highest eigenvalues
    2.044990    2.046146    2.110132    2.118831    2.183026    2.184859


........................................................................
.............................. CYCLE    1 ..............................
........................................................................

 iter      E             dE          RMSdq      gap      omega  full diag
   1   -100.7352348 -0.100735E+03  0.299E-05    0.83       0.0  T
   2   -100.7352348  0.554522E-09  0.754E-05    0.83     156.3  T
   3   -100.7352348 -0.614548E-09  0.172E-05    0.83     684.1  T
     SCC iter.                  ...        0 min,  0.026 sec
     gradient                   ...        0 min,  0.068 sec
 * total energy  :   -99.3304230 Eh     change       -0.1012381E-09 Eh
   gradient norm :     0.0026494 Eh/α   predicted     0.0000000E+00 (-100.00%)
   displ. norm   :     0.0377710 α      lambda       -0.3220542E-04
   maximum displ.:     0.0147664 α      in ANC's #6, #26, #25, ...

   *** GEOMETRY OPTIMIZATION CONVERGED AFTER 1 ITERATIONS ***

------------------------------------------------------------------------
 total energy gain   :        -0.0000000 Eh       -0.0000 kcal/mol
 total RMSD          :         0.0000000 a0        0.0000 Å
 total power (kW/mol):        -0.0000003 (step)   -0.0000 (real)
------------------------------------------------------------------------

 ANCopt (total)                0 d,  0 h,  0 min,  0.170 sec
 optimizer setup                ...        0 min,  0.000 sec (  0.166%)
 model hessian                  ...        0 min,  0.045 sec ( 26.382%)
 ANC generation                 ...        0 min,  0.006 sec (  3.703%)
 coordinate transformation      ...        0 min,  0.000 sec (  0.029%)
 single point calculation       ...        0 min,  0.116 sec ( 68.166%)
 optimization log               ...        0 min,  0.002 sec (  1.030%)
 hessian update                 ...        0 min,  0.000 sec (  0.001%)
 rational function              ...        0 min,  0.000 sec (  0.121%)

================
 final structure:
================
72
 xtb: 6.6.1 (8d0f1dd)
N           -2.28088953384528        3.52332291490752        1.76754558464195
C           -2.43077243684192        2.82823645608564        0.74134781685426
C           -3.77950154271307        2.49570637571586        0.15031760988382
C           -3.92519873626166        0.96780598365848        0.11489956493173
C           -4.85139829131396        0.37796190646933       -0.74143011048088
C           -5.04285396899352       -0.99501693802507       -0.75545609187178
O           -5.91664997583417       -1.65260965463853       -1.53966390868474
C           -6.76352092819961       -0.92254133820616       -2.39736908683577
C           -4.28052135026135       -1.81561863804562        0.12164344554754
O           -4.53551435322707       -3.13565738460080        0.04476933686278
C           -3.90002347288286       -4.01446855143543        0.94291549158293
C           -3.36229335270946       -1.21456953651728        0.96959676611209
C           -3.18437071406362        0.16178410165602        0.96529861865875
C           -3.77668634249065        3.02902286728801       -1.22685027610367
C           -1.02228502948725        0.24633470904322       -1.71591403340347
C            0.18847049540027        0.38851703240809       -1.16074682199522
N            0.87164960520576       -0.55016988514557       -0.45227771339445
C            2.25378715568628       -0.33495090086058       -0.12009905485215
C            3.21815380154197       -0.83610054905156       -1.21888926589562
C            4.63587395552759       -0.53194395496549       -0.83633676834203
C            5.18650135013853        0.71485233397815       -1.10276581827010
C            6.48230870030665        1.01854050383408       -0.72008466095251
C            7.26069634831568        0.07874162867325       -0.05651741662265
O            8.52497245975420        0.25983083443758        0.36199896268395
C            9.16274870999435        1.49318950456685        0.12154235463553
C            6.70662397464007       -1.20406393420068        0.22146780022016
O            7.53112185425179       -2.05376690950625        0.85943474370436
C            7.08884371884057       -3.35611544315912        1.15950439785045
C            5.40463294604377       -1.48141085473373       -0.16883060343184
C            0.34357183033634       -1.88319325453648       -0.32932503662305
C           -5.00004332424998        3.07141365859684        0.93786443871781
C           -5.08423555427691        2.53332291807854        2.36027757110079
C           -4.96925896141673        4.59608236102278        0.94759284365780
H           -5.43526846131981        1.00098757172732       -1.39713034559883
H           -7.40442229681660       -0.23522868740682       -1.83675793549049
H           -7.38223803572163       -1.66570450583551       -2.89656954477653
H           -6.19253155675383       -0.36463370194074       -3.14606409955198
H           -4.12264508349262       -3.75552113401146        1.98206725136982
H           -4.30524651305926       -5.00009019273298        0.72188362555816
H           -2.81504194844175       -4.02785002749017        0.79403114000734
H           -2.78878886399791       -1.81216501703141        1.66029950583604
H           -2.47781198985232        0.59816725754227        1.65333657338828
H           -4.69742054749981        3.20366079974654       -1.74702959698691
H           -2.86228847922868        3.30741233144144       -1.71427417848214
H           -1.58511451140696       -0.66728823213675       -1.68867280210025
H           -1.47986855257396        1.06755777785082       -2.23353952084723
H           -1.60255495694099        2.41314554239439        0.14803778994357
H            0.70353121975238        1.33660034124810       -1.23704327666240
H            2.47974196792478       -0.85401876697353        0.81605429312907
H            2.42122925886393        0.73342578277505        0.03582677887955
H            2.96647190243467       -0.33836489449891       -2.15689491366324
H            3.08373436152796       -1.91009521449352       -1.34974983008231
H            4.60365421138128        1.45798103700841       -1.62507976745019
H            6.88261966627445        1.99314424162113       -0.94667284394833
H            8.64263755478605        2.31644503357864        0.62110982305789
H            9.23682886915998        1.70358661217918       -0.94962573766920
H           10.16250084081299        1.39108039308862        0.53938151399611
H            7.92571416955971       -3.84129276374169        1.65758847573452
H            6.22633070259125       -3.34180707259006        1.83280036522842
H            6.83611610382003       -3.91251231573527        0.25187064457718
H            4.97760566165652       -2.45110988904810        0.03378934660829
H            0.34052096128107       -2.40887224649513       -1.28931740236558
H           -0.68228233810674       -1.83641341696485        0.03884130600602
H            0.94605308870857       -2.44640500436153        0.37948712899219
H           -5.89127493000583        2.74225650094299        0.39180025963474
H           -4.21953282002617        2.85573383087781        2.93348337197156
H           -5.13421569426610        1.44616095653649        2.37148640399133
H           -5.98047846585773        2.92136224024162        2.83844953999645
H           -4.11632539607904        4.94746271604132        1.52028087411660
H           -4.89582843304017        4.99080313808623       -0.06395443099002
H           -5.87664195641177        4.97999301430636        1.40632967739131
H           -1.33489214958886        3.72407712396046        2.07594469999200

 Bond Distances (Angstroems)
 ---------------------------
N1-C2=1.2485         N1-H72=1.0150        C2-N1=1.2485         C2-C3=1.5096         C2-H47=1.1001        C3-C2=1.5096         
C3-C4=1.5352         C3-C14=1.4768        C3-C31=1.5625        C4-C3=1.5352         C4-C5=1.3925         C4-C13=1.3862        
C5-C4=1.3925         C5-C6=1.3863         C5-H34=1.0766        C6-C5=1.3863         C6-O7=1.3457         C6-C9=1.4226         
O7-C6=1.3457         O7-C8=1.4092         C8-O7=1.4092         C8-H35=1.0943        C8-H36=1.0883        C8-H37=1.0945        
C9-C6=1.4226         C9-O10=1.3466        C9-C12=1.3869        O10-C9=1.3466        O10-C11=1.4081       C11-O10=1.4081       
C11-H38=1.0938       C11-H39=1.0884       C11-H40=1.0952       C12-C9=1.3869        C12-C13=1.3878       C12-H41=1.0785       
C13-C4=1.3862        C13-C12=1.3878       C13-H42=1.0784       C14-C3=1.4768        C14-H43=1.0718       C14-H44=1.0729       
C15-C16=1.3395       C15-H45=1.0734       C15-H46=1.0732       C16-C15=1.3395       C16-N17=1.3601       C16-H48=1.0817       
N17-C16=1.3601       N17-C18=1.4377       N17-C30=1.4391       C18-N17=1.4377       C18-C19=1.5455       C18-H49=1.0940       
C18-H50=1.0926       C19-C18=1.5455       C19-C20=1.4996       C19-H51=1.0913       C19-H52=1.0903       C20-C19=1.4996       
C20-C21=1.3888       C20-C29=1.3921       C21-C20=1.3888       C21-C22=1.3848       C21-H53=1.0792       C22-C21=1.3848       
C22-C23=1.3890       C22-H54=1.0777       C23-C22=1.3890       C23-O24=1.3440       C23-C26=1.4247       O24-C23=1.3440       
O24-C25=1.4092       C25-O24=1.4092       C25-H55=1.0945       C25-H56=1.0941       C25-H57=1.0884       C26-C23=1.4247       
C26-O27=1.3449       C26-C29=1.3872       O27-C26=1.3449       O27-C28=1.4078       C28-O27=1.4078       C28-H58=1.0880       
C28-H59=1.0943       C28-H60=1.0942       C29-C20=1.3921       C29-C26=1.3872       C29-H61=1.0788       C30-N17=1.4391       
C30-H62=1.0945       C30-H63=1.0909       C30-H64=1.0875       C31-C3=1.5625        C31-C32=1.5231       C31-C33=1.5250       
C31-H65=1.0958       C32-C31=1.5231       C32-H66=1.0864       C32-H67=1.0884       C32-H68=1.0874       C33-C31=1.5250       
C33-H69=1.0858       C33-H70=1.0883       C33-H71=1.0868       H34-C5=1.0766        H35-C8=1.0943        H36-C8=1.0883        
H37-C8=1.0945        H38-C11=1.0938       H39-C11=1.0884       H40-C11=1.0952       H41-C12=1.0785       H42-C13=1.0784       
H43-C14=1.0718       H44-C14=1.0729       H45-C15=1.0734       H46-C15=1.0732       H47-C2=1.1001        H48-C16=1.0817       
H49-C18=1.0940       H50-C18=1.0926       H51-C19=1.0913       H52-C19=1.0903       H53-C21=1.0792       H54-C22=1.0777       
H55-C25=1.0945       H56-C25=1.0941       H57-C25=1.0884       H58-C28=1.0880       H59-C28=1.0943       H60-C28=1.0942       
H61-C29=1.0788       H62-C30=1.0945       H63-C30=1.0909       H64-C30=1.0875       H65-C31=1.0958       H66-C32=1.0864       
H67-C32=1.0884       H68-C32=1.0874       H69-C33=1.0858       H70-C33=1.0883       H71-C33=1.0868       H72-N1=1.0150        
 C  H  Rav=1.0871 sigma=0.0076  Rmin=1.0718  Rmax=1.1001    38
 C  C  Rav=1.4403 sigma=0.0678  Rmin=1.3395  Rmax=1.5625    21
 N  H  Rav=1.0150 sigma=0.0000  Rmin=1.0150  Rmax=1.0150     1
 N  C  Rav=1.3713 sigma=0.0778  Rmin=1.2485  Rmax=1.4391     4
 O  C  Rav=1.3769 sigma=0.0316  Rmin=1.3440  Rmax=1.4092     8

 selected bond angles (degree)
 --------------------
H72-N1-C2=118.15               C3-C2-N1=123.48                H47-C2-N1=124.26               H47-C2-C3=112.23               
C4-C3-C2=108.24                C14-C3-C2=106.49               C14-C3-C4=109.76               C31-C3-C2=114.80               
C31-C3-C4=107.71               C31-C3-C14=109.78              C5-C4-C3=119.93                C13-C4-C3=120.92               
C13-C4-C5=119.11               C6-C5-C4=121.17                H34-C5-C4=119.35               H34-C5-C6=119.48               
O7-C6-C5=125.42                C9-C6-C5=119.41                C9-C6-O7=115.17                C8-O7-C6=119.46                
H35-C8-O7=111.44               H36-C8-O7=105.49               H36-C8-H35=109.33              H37-C8-O7=111.53               
H37-C8-H35=109.62              H37-C8-H36=109.32              O10-C9-C6=115.39               C12-C9-C6=118.80               
C12-C9-O10=125.81              C11-O10-C9=119.33              

 selected dihedral angles (degree)
 ---------------------------------
C3-C2-N1-H72=182.12           H47-C2-N1-H72=  0.26          C4-C3-C2-N1=238.68            C4-C3-C2-H47= 60.35           
C14-C3-C2-N1=120.73           C14-C3-C2-H47=302.39          C31-C3-C2-N1=359.02           C31-C3-C2-H47=180.68          
C5-C4-C3-C2=200.27            C5-C4-C3-C14=316.12           C5-C4-C3-C31= 75.60           C13-C4-C3-C2= 22.93           
C13-C4-C3-C14=138.78          C13-C4-C3-C31=258.27          C6-C5-C4-C3=182.65            C6-C5-C4-C13=  0.03           
H34-C5-C4-C3=  2.06           H34-C5-C4-C13=179.45          O7-C6-C5-C4=179.62            O7-C6-C5-H34=  0.20           
C9-C6-C5-C4=  0.07            C9-C6-C5-H34=180.66           C8-O7-C6-C5=357.43            C8-O7-C6-C9=176.99            
H35-C8-O7-C6=299.98           H36-C8-O7-C6=181.43           H37-C8-O7-C6= 62.85           O10-C9-C6-C5=179.73           
O10-C9-C6-O7=  0.14           C12-C9-C6-C5=359.97           C12-C9-C6-O7=180.38           C11-O10-C9-C6=184.61          
C11-O10-C9-C12=  4.35         

 CMA Distance (Angstroems)
 ---------------------------
R(CMA):  9.0514
           -------------------------------------------------
          |                Final Singlepoint                |
           -------------------------------------------------

          ...................................................
          :                      SETUP                      :
          :.................................................:
          :  # basis functions                 171          :
          :  # atomic orbitals                 171          :
          :  # shells                          105          :
          :  # electrons                       180          :
          :  max. iterations                   250          :
          :  Hamiltonian                  GFN2-xTB          :
          :  restarted?                      false          :
          :  GBSA solvation                  false          :
          :  PC potential                    false          :
          :  electronic temp.         5000.0000000     K    :
          :  accuracy                    1.0000000          :
          :  -> integral cutoff          0.2500000E+02      :
          :  -> integral neglect         0.1000000E-07      :
          :  -> SCF convergence          0.1000000E-05 Eh   :
          :  -> wf. convergence          0.1000000E-03 e    :
          :  Broyden damping             0.4000000          :
          ...................................................

 iter      E             dE          RMSdq      gap      omega  full diag
   1   -100.7352348 -0.100735E+03  0.744E-06    0.83       0.0  T
   2   -100.7352348  0.306954E-11  0.728E-06    0.83    1619.1  T
   3   -100.7352348  0.100897E-11  0.820E-06    0.83    1437.8  T

   *** convergence criteria satisfied after 3 iterations ***

         #    Occupation            Energy/Eh            Energy/eV
      -------------------------------------------------------------
         1        2.0000           -0.8144209             -22.1615
       ...           ...                  ...                  ...
        84        1.9924           -0.5144621             -13.9992
        85        1.9722           -0.4937888             -13.4367
        86        1.9672           -0.4911348             -13.3645
        87        1.8929           -0.4717819             -12.8378
        88        1.8239           -0.4633126             -12.6074
        89        1.7999           -0.4610809             -12.5466
        90        1.6936           -0.4533753             -12.3370 (HOMO)
        91        0.8879           -0.4227355             -11.5032 (LUMO)
        92        0.0072           -0.3372567              -9.1772
        93        0.0023           -0.3193400              -8.6897
        94        0.0019           -0.3161968              -8.6042
        95        0.0017           -0.3147881              -8.5658
       ...           ...                  ...                  ...
       171                          0.5717929              15.5593
      -------------------------------------------------------------
                  HL-Gap            0.0306399 Eh            0.8338 eV
             Fermi-level           -0.4263007 Eh          -11.6002 eV

 SCC (total)                   0 d,  0 h,  0 min,  0.116 sec
 SCC setup                      ...        0 min,  0.001 sec (  0.751%)
 Dispersion                     ...        0 min,  0.002 sec (  1.366%)
 classical contributions        ...        0 min,  0.000 sec (  0.373%)
 integral evaluation            ...        0 min,  0.018 sec ( 15.086%)
 iterations                     ...        0 min,  0.026 sec ( 22.423%)
 molecular gradient             ...        0 min,  0.069 sec ( 59.435%)
 printout                       ...        0 min,  0.001 sec (  0.547%)

         :::::::::::::::::::::::::::::::::::::::::::::::::::::
         ::                     SUMMARY                     ::
         :::::::::::::::::::::::::::::::::::::::::::::::::::::
         :: total energy             -99.330422953056 Eh    ::
         :: gradient norm              0.002649377907 Eh/a0 ::
         :: HOMO-LUMO gap              0.833753016714 eV    ::
         ::.................................................::
         :: SCC energy              -100.735234755562 Eh    ::
         :: -> isotropic ES            0.101546955404 Eh    ::
         :: -> anisotropic ES          0.006322830668 Eh    ::
         :: -> anisotropic XC          0.047575625144 Eh    ::
         :: -> dispersion             -0.072025025772 Eh    ::
         :: repulsion energy           1.403786879119 Eh    ::
         :: add. restraining           0.000000000000 Eh    ::
         :: total charge               1.000000000000 e     ::
         :::::::::::::::::::::::::::::::::::::::::::::::::::::

           -------------------------------------------------
          |                Property Printout                |
           -------------------------------------------------

    * Orbital Energies and Occupations

         #    Occupation            Energy/Eh            Energy/eV
      -------------------------------------------------------------
         1        2.0000           -0.8144209             -22.1615
       ...           ...                  ...                  ...
        78        1.9973           -0.5306579             -14.4399
        79        1.9971           -0.5299730             -14.4213
        80        1.9961           -0.5252057             -14.2916
        81        1.9951           -0.5214798             -14.1902
        82        1.9942           -0.5186389             -14.1129
        83        1.9926           -0.5149020             -14.0112
        84        1.9924           -0.5144621             -13.9992
        85        1.9722           -0.4937888             -13.4367
        86        1.9672           -0.4911348             -13.3645
        87        1.8929           -0.4717819             -12.8378
        88        1.8239           -0.4633126             -12.6074
        89        1.7999           -0.4610809             -12.5466
        90        1.6936           -0.4533753             -12.3370 (HOMO)
        91        0.8879           -0.4227355             -11.5032 (LUMO)
        92        0.0072           -0.3372567              -9.1772
        93        0.0023           -0.3193400              -8.6897
        94        0.0019           -0.3161968              -8.6042
        95        0.0017           -0.3147881              -8.5658
        96        0.0016           -0.3129146              -8.5148
        97        0.0003           -0.2888951              -7.8612
        98        0.0000           -0.1935749              -5.2674
        99        0.0000           -0.1896310              -5.1601
       100                         -0.0987227              -2.6864
       101                         -0.0676013              -1.8395
       ...                                ...                  ...
       171                          0.5717929              15.5593
      -------------------------------------------------------------
                  HL-Gap            0.0306399 Eh            0.8338 eV
             Fermi-level           -0.4263007 Eh          -11.6002 eV

     #   Z          covCN         q      C6AA      α(0)
     1   7 N        1.774    -0.263    27.662     7.788
     2   6 C        2.836     0.106    25.655     8.300
     3   6 C        3.911     0.024    20.112     6.374
     4   6 C        2.979     0.014    27.683     8.631
     5   6 C        2.918    -0.074    29.839     8.958
     6   6 C        2.863     0.135    25.054     8.205
     7   8 O        1.706    -0.221    17.662     5.674
     8   6 C        3.644     0.024    20.501     6.508
     9   6 C        2.863     0.131    25.124     8.216
    10   8 O        1.706    -0.223    17.693     5.679
    11   6 C        3.645     0.026    20.476     6.504
    12   6 C        2.914    -0.070    29.757     8.945
    13   6 C        2.920    -0.044    29.095     8.845
    14   6 C        2.861    -0.083    30.083     8.990
    15   6 C        2.838    -0.121    31.075     9.135
    16   6 C        2.840     0.021    27.533     8.599
    17   7 N        2.732    -0.043    22.072     6.978
    18   6 C        3.752    -0.007    20.769     6.499
    19   6 C        3.807    -0.071    21.851     6.654
    20   6 C        2.968     0.008    27.840     8.655
    21   6 C        2.922    -0.045    29.107     8.847
    22   6 C        2.913    -0.065    29.624     8.925
    23   6 C        2.864     0.135    25.039     8.202
    24   8 O        1.706    -0.215    17.569     5.659
    25   6 C        3.645     0.023    20.517     6.510
    26   6 C        2.862     0.136    25.032     8.201
    27   8 O        1.706    -0.217    17.609     5.666
    28   6 C        3.645     0.025    20.488     6.506
    29   6 C        2.919    -0.076    29.908     8.968
    30   6 C        3.700    -0.057    21.766     6.672
    31   6 C        3.855    -0.004    20.622     6.459
    32   6 C        3.755    -0.118    22.814     6.811
    33   6 C        3.755    -0.117    22.802     6.809
    34   1 H        0.926     0.061     2.193     2.316
    35   1 H        0.924     0.057     2.240     2.340
    36   1 H        0.925     0.084     1.936     2.176
    37   1 H        0.924     0.055     2.263     2.353
    38   1 H        0.924     0.057     2.237     2.339
    39   1 H        0.925     0.084     1.941     2.179
    40   1 H        0.924     0.048     2.344     2.394
    41   1 H        0.926     0.053     2.279     2.361
    42   1 H        0.926     0.048     2.345     2.395
    43   1 H        0.926     0.065     2.141     2.288
    44   1 H        0.926     0.053     2.277     2.360
    45   1 H        0.926     0.043     2.413     2.429
    46   1 H        0.926     0.046     2.376     2.411
    47   1 H        0.923     0.021     2.721     2.580
    48   1 H        0.925     0.047     2.357     2.401
    49   1 H        0.924     0.056     2.251     2.347
    50   1 H        0.924     0.059     2.216     2.328
    51   1 H        0.924     0.056     2.243     2.342
    52   1 H        0.924     0.054     2.268     2.355
    53   1 H        0.926     0.051     2.307     2.375
    54   1 H        0.926     0.061     2.188     2.313
    55   1 H        0.924     0.057     2.229     2.335
    56   1 H        0.924     0.059     2.210     2.325
    57   1 H        0.925     0.085     1.931     2.173
    58   1 H        0.925     0.084     1.937     2.176
    59   1 H        0.924     0.053     2.281     2.362
    60   1 H        0.924     0.056     2.242     2.341
    61   1 H        0.926     0.053     2.282     2.363
    62   1 H        0.924     0.061     2.184     2.311
    63   1 H        0.924     0.065     2.143     2.289
    64   1 H        0.925     0.063     2.162     2.299
    65   1 H        0.924     0.045     2.387     2.416
    66   1 H        0.925     0.068     2.113     2.273
    67   1 H        0.925     0.037     2.493     2.469
    68   1 H        0.925     0.056     2.242     2.342
    69   1 H        0.925     0.069     2.100     2.266
    70   1 H        0.925     0.042     2.427     2.436
    71   1 H        0.925     0.056     2.249     2.345
    72   1 H        0.860     0.161     1.329     1.806

 Mol. C6AA /au·bohr⁶  :      48162.559373
 Mol. C8AA /au·bohr⁸  :    1099654.972340
 Mol. α(0) /au        :        339.077497


Wiberg/Mayer (AO) data.
largest (>0.10) Wiberg bond orders for each atom

 ---------------------------------------------------------------------------
     #   Z sym  total        # sym  WBO       # sym  WBO       # sym  WBO
 ---------------------------------------------------------------------------
     1   7 N    3.012 --     2 C    1.960    72 H    0.938
     2   6 C    3.934 --     1 N    1.960     3 C    0.975    47 H    0.929
     3   6 C    3.960 --    14 C    1.067     2 C    0.975    31 C    0.913
                             4 C    0.910
     4   6 C    3.877 --    13 C    1.400     5 C    1.380     3 C    0.910
     5   6 C    3.952 --     6 C    1.390     4 C    1.380    34 H    0.958
     6   6 C    3.894 --     5 C    1.390     9 C    1.215     7 O    1.110
     7   8 O    2.254 --     6 C    1.110     8 C    0.975
     8   6 C    3.927 --    36 H    0.976     7 O    0.975    35 H    0.972
                            37 H    0.972
     9   6 C    3.887 --    12 C    1.385     6 C    1.215    10 O    1.107
    10   8 O    2.249 --     9 C    1.107    11 C    0.977
    11   6 C    3.929 --    10 O    0.977    39 H    0.976    40 H    0.973
                            38 H    0.973
    12   6 C    3.953 --    13 C    1.408     9 C    1.385    41 H    0.962
    13   6 C    3.934 --    12 C    1.408     4 C    1.400    42 H    0.962
    14   6 C    3.133 --     3 C    1.067    44 H    0.979    43 H    0.975
    15   6 C    3.802 --    16 C    1.727    46 H    0.976    45 H    0.974
    16   6 C    3.943 --    15 C    1.727    17 N    1.207    48 H    0.957
    17   7 N    3.361 --    16 C    1.207    30 C    1.008    18 C    1.007
    18   6 C    3.962 --    17 N    1.007    50 H    0.968    49 H    0.967
                            19 C    0.959
    19   6 C    3.971 --    20 C    1.015    52 H    0.972    51 H    0.970
                            18 C    0.959
    20   6 C    3.926 --    21 C    1.390    29 C    1.385    19 C    1.015
    21   6 C    3.929 --    22 C    1.426    20 C    1.390    53 H    0.967
    22   6 C    3.950 --    21 C    1.426    23 C    1.373    54 H    0.962
    23   6 C    3.873 --    22 C    1.373    26 C    1.209    24 O    1.118
    24   8 O    2.249 --    23 C    1.118    25 C    0.975
    25   6 C    3.924 --    57 H    0.976    24 O    0.975    55 H    0.971
                            56 H    0.971
    26   6 C    3.880 --    29 C    1.387    23 C    1.209    27 O    1.113
    27   8 O    2.251 --    26 C    1.113    28 C    0.977
    28   6 C    3.927 --    27 O    0.977    58 H    0.976    59 H    0.972
                            60 H    0.972
    29   6 C    3.950 --    26 C    1.387    20 C    1.385    61 H    0.961
    30   6 C    3.966 --    17 N    1.008    64 H    0.980    63 H    0.969
                            62 H    0.966
    31   6 C    3.942 --    32 C    1.011    33 C    1.006    65 H    0.959
                             3 C    0.913
    32   6 C    3.974 --    31 C    1.011    67 H    0.980    68 H    0.977
                            66 H    0.973
    33   6 C    3.966 --    31 C    1.006    71 H    0.979    70 H    0.976
                            69 H    0.972
    34   1 H    0.995 --     5 C    0.958
    35   1 H    0.991 --     8 C    0.972
    36   1 H    0.992 --     8 C    0.976
    37   1 H    0.991 --     8 C    0.972
    38   1 H    0.991 --    11 C    0.973
    39   1 H    0.992 --    11 C    0.976
    40   1 H    0.992 --    11 C    0.973
    41   1 H    0.994 --    12 C    0.962
    42   1 H    0.996 --    13 C    0.962
    43   1 H    0.995 --    14 C    0.975
    44   1 H    0.996 --    14 C    0.979
    45   1 H    0.998 --    15 C    0.974
    46   1 H    0.997 --    15 C    0.976
    47   1 H    0.976 --     2 C    0.929
    48   1 H    0.997 --    16 C    0.957
    49   1 H    0.992 --    18 C    0.967
    50   1 H    0.994 --    18 C    0.968
    51   1 H    0.994 --    19 C    0.970
    52   1 H    0.995 --    19 C    0.972
    53   1 H    0.996 --    21 C    0.967
    54   1 H    0.994 --    22 C    0.962
    55   1 H    0.989 --    25 C    0.971
    56   1 H    0.989 --    25 C    0.971
    57   1 H    0.992 --    25 C    0.976
    58   1 H    0.992 --    28 C    0.976
    59   1 H    0.991 --    28 C    0.972
    60   1 H    0.990 --    28 C    0.972
    61   1 H    0.996 --    29 C    0.961
    62   1 H    0.982 --    30 C    0.966
    63   1 H    0.988 --    30 C    0.969
    64   1 H    0.995 --    30 C    0.980
    65   1 H    0.988 --    31 C    0.959
    66   1 H    0.990 --    32 C    0.973
    67   1 H    0.996 --    32 C    0.980
    68   1 H    0.991 --    32 C    0.977
    69   1 H    0.989 --    33 C    0.972
    70   1 H    0.995 --    33 C    0.976
    71   1 H    0.992 --    33 C    0.979
    72   1 H    0.965 --     1 N    0.938
 ---------------------------------------------------------------------------

Topologies differ in total number of bonds
Writing topology from bond orders to xtbtopo.mol

molecular dipole:
                 x           y           z       tot (Debye)
 q only:        0.613      -0.110      -0.119
   full:        0.923      -0.112      -0.417       2.589
molecular quadrupole (traceless):
                xx          xy          yy          xz          yz          zz
 q only:       79.412      -9.131     -23.571       7.052      -7.382     -55.841
  q+dip:       75.467      -5.520     -22.070      10.022     -11.934     -53.397
   full:       74.148      -6.023     -22.102       7.517     -11.781     -52.046

           -------------------------------------------------
          |                Geometry Summary                 |
           -------------------------------------------------

      molecular mass/u    :      455.6105846
   center of mass at/Å    :        0.0299147       0.0256188      -0.0419429
  moments of inertia/u·Å² :        0.2499570E+04   0.1238176E+05   0.1383665E+05
rotational constants/cm⁻¹ :        0.6744213E-02   0.1361489E-02   0.1218332E-02

 * 66 selected distances

     #   Z          #   Z                                           value/Å
     1   7 N        2   6 C                                       1.2484760
     4   6 C        5   6 C                                       1.3925023
     5   6 C        6   6 C                                       1.3863345
     6   6 C        7   8 O                                       1.3457079
     7   8 O        8   6 C                                       1.4092014
     6   6 C        9   6 C                                       1.4226181
     9   6 C       10   8 O                                       1.3466379
    10   8 O       11   6 C                                       1.4081281
     9   6 C       12   6 C                                       1.3868770
     4   6 C       13   6 C                                       1.3862454
    12   6 C       13   6 C                                       1.3878129
     3   6 C       14   6 C                                       1.4768298
    15   6 C       16   6 C                                       1.3395356
    16   6 C       17   7 N                                       1.3600719
    17   7 N       18   6 C                                       1.4376948
    20   6 C       21   6 C                                       1.3887679
    21   6 C       22   6 C                                       1.3848424
    22   6 C       23   6 C                                       1.3890396
    23   6 C       24   8 O                                       1.3440029
    24   8 O       25   6 C                                       1.4091671
    23   6 C       26   6 C                                       1.4247324
    26   6 C       27   8 O                                       1.3449141
    27   8 O       28   6 C                                       1.4077513
    20   6 C       29   6 C                                       1.3921360
    26   6 C       29   6 C                                       1.3872401
    17   7 N       30   6 C                                       1.4390744
    31   6 C       32   6 C                                       1.5231184
    31   6 C       33   6 C                                       1.5250106 (max)
     5   6 C       34   1 H                                       1.0765725
     8   6 C       35   1 H                                       1.0942753
     8   6 C       36   1 H                                       1.0882572
     8   6 C       37   1 H                                       1.0944561
    11   6 C       38   1 H                                       1.0938239
    11   6 C       39   1 H                                       1.0883524
    11   6 C       40   1 H                                       1.0952309
    12   6 C       41   1 H                                       1.0784703
    13   6 C       42   1 H                                       1.0784489
    14   6 C       43   1 H                                       1.0718380 (min)
    14   6 C       44   1 H                                       1.0729429
    15   6 C       45   1 H                                       1.0734180
    15   6 C       46   1 H                                       1.0731852
     2   6 C       47   1 H                                       1.1001189
    16   6 C       48   1 H                                       1.0816519
    18   6 C       49   1 H                                       1.0940157
    18   6 C       50   1 H                                       1.0926018
    19   6 C       51   1 H                                       1.0913017
    19   6 C       52   1 H                                       1.0902559
    21   6 C       53   1 H                                       1.0792419
    22   6 C       54   1 H                                       1.0777030
    25   6 C       55   1 H                                       1.0944556
    25   6 C       56   1 H                                       1.0941463
    25   6 C       57   1 H                                       1.0883567
    28   6 C       58   1 H                                       1.0880428
    28   6 C       59   1 H                                       1.0942857
    28   6 C       60   1 H                                       1.0941883
    29   6 C       61   1 H                                       1.0787602
    30   6 C       62   1 H                                       1.0945014
    30   6 C       63   1 H                                       1.0909225
    30   6 C       64   1 H                                       1.0874769
    31   6 C       65   1 H                                       1.0958214
    32   6 C       66   1 H                                       1.0863815
    32   6 C       67   1 H                                       1.0883680
    32   6 C       68   1 H                                       1.0874164
    33   6 C       69   1 H                                       1.0857880
    33   6 C       70   1 H                                       1.0883128
    33   6 C       71   1 H                                       1.0868169

 * 4 distinct bonds (by element types)

   Z      Z             #   av. dist./Å        max./Å        min./Å
   1 H    6 C          38     1.0871106     1.1001189     1.0718380
   6 C    6 C          16     1.4121027     1.5250106     1.3395356
   6 C    7 N           4     1.3713293     1.4390744     1.2484760
   6 C    8 O           8     1.3769388     1.4092014     1.3440029


optimized geometry written to: xtbopt.xyz


           -------------------------------------------------
          | TOTAL ENERGY              -99.330422953056 Eh   |
          | GRADIENT NORM               0.002649377907 Eh/α |
          | HOMO-LUMO GAP               0.833753016714 eV   |
           -------------------------------------------------

------------------------------------------------------------------------
 * finished run on 2024/04/06 at 11:13:08.792     
------------------------------------------------------------------------
 total:
 * wall-time:     0 d,  0 h,  0 min,  0.462 sec
 *  cpu-time:     0 d,  0 h,  0 min,  0.429 sec
 * ratio c/w:     0.929 speedup
 SCF:
 * wall-time:     0 d,  0 h,  0 min,  0.120 sec
 *  cpu-time:     0 d,  0 h,  0 min,  0.119 sec
 * ratio c/w:     0.993 speedup
 ANC optimizer:
 * wall-time:     0 d,  0 h,  0 min,  0.293 sec
 *  cpu-time:     0 d,  0 h,  0 min,  0.286 sec
 * ratio c/w:     0.974 speedup

