      -----------------------------------------------------------      
     |                   =====================                   |     
     |                           x T B                           |     
     |                   =====================                   |     
     |                         S. Grimme                         |     
     |          Mulliken Center for Theoretical Chemistry        |     
     |                    University of Bonn                     |     
      -----------------------------------------------------------      

   * xtb version 6.6.1 (8d0f1dd) compiled by 'conda@1efc2f54142f' on 2023-08-01

   xtb is free software: you can redistribute it and/or modify it under
   the terms of the GNU Lesser General Public License as published by
   the Free Software Foundation, either version 3 of the License, or
   (at your option) any later version.
   
   xtb is distributed in the hope that it will be useful,
   but WITHOUT ANY WARRANTY; without even the implied warranty of
   MERCHANTABILITY or FITNESS FOR A PARTICULAR PURPOSE.  See the
   GNU Lesser General Public License for more details.
   
   Cite this work as:
   * C. Bannwarth, E. Caldeweyher, S. Ehlert, A. Hansen, P. Pracht,
     J. Seibert, S. Spicher, S. Grimme, WIREs Comput. Mol. Sci., 2020, 11,
     e01493. DOI: 10.1002/wcms.1493
   
   for GFN2-xTB:
   * C. Bannwarth, S. Ehlert and S. Grimme., J. Chem. Theory Comput., 2019,
     15, 1652-1671. DOI: 10.1021/acs.jctc.8b01176
   for GFN1-xTB:
   * S. Grimme, C. Bannwarth, P. Shushkov, J. Chem. Theory Comput., 2017,
     13, 1989-2009. DOI: 10.1021/acs.jctc.7b00118
   for GFN0-xTB:
   * P. Pracht, E. Caldeweyher, S. Ehlert, S. Grimme, ChemRxiv, 2019, preprint.
     DOI: 10.26434/chemrxiv.8326202.v1
   for GFN-FF:
   * S. Spicher and S. Grimme, Angew. Chem. Int. Ed., 2020, 59, 15665-15673.
     DOI: 10.1002/anie.202004239
   
   for ALPB and GBSA implicit solvation:
   * S. Ehlert, M. Stahn, S. Spicher, S. Grimme, J. Chem. Theory Comput.,
     2021, 17, 4250-4261. DOI: 10.1021/acs.jctc.1c00471
   
   for DFT-D4:
   * E. Caldeweyher, C. Bannwarth and S. Grimme, J. Chem. Phys., 2017,
     147, 034112. DOI: 10.1063/1.4993215
   * E. Caldeweyher, S. Ehlert, A. Hansen, H. Neugebauer, S. Spicher,
     C. Bannwarth and S. Grimme, J. Chem. Phys., 2019, 150, 154122.
     DOI: 10.1063/1.5090222
   * E. Caldeweyher, J.-M. Mewes, S. Ehlert and S. Grimme, Phys. Chem. Chem. Phys.
     2020, 22, 8499-8512. DOI: 10.1039/D0CP00502A
   
   for sTDA-xTB:
   * S. Grimme and C. Bannwarth, J. Chem. Phys., 2016, 145, 054103.
     DOI: 10.1063/1.4959605
   
   in the mass-spec context:
   * V. Asgeirsson, C. Bauer and S. Grimme, Chem. Sci., 2017, 8, 4879.
     DOI: 10.1039/c7sc00601b
   * J. Koopman and S. Grimme, ACS Omega 2019, 4, 12, 15120-15133.
     DOI: 10.1021/acsomega.9b02011
   
   for metadynamics refer to:
   * S. Grimme, J. Chem. Theory Comput., 2019, 155, 2847-2862
     DOI: 10.1021/acs.jctc.9b00143
   
   for SPH calculations refer to:
   * S. Spicher and S. Grimme, J. Chem. Theory Comput., 2021, 17, 1701-1714
     DOI: 10.1021/acs.jctc.0c01306
   
   with help from (in alphabetical order)
   P. Atkinson, C. Bannwarth, F. Bohle, G. Brandenburg, E. Caldeweyher
   M. Checinski, S. Dohm, S. Ehlert, S. Ehrlich, I. Gerasimov, C. Hölzer
   A. Katbashev, J. Koopman, C. Lavigne, S. Lehtola, F. März, M. Müller,
   F. Musil, H. Neugebauer, J. Pisarek, C. Plett, P. Pracht, F. Pultar,
   J. Seibert, P. Shushkov, S. Spicher, M. Stahn, M. Steiner, T. Strunk,
   J. Stückrath, T. Rose, and J. Unsleber
   
 * started run on 2024/06/05 at 19:59:00.574     

           -------------------------------------------------
          |                Calculation Setup                |
           -------------------------------------------------

          program call               : xtb xtbopt.xyz --opt crude --input .xc2 --gfn2
          hostname                   : n-62-29-9
          coordinate file            : xtbopt.xyz
          omp threads                :                     1

   ID    Z sym.   atoms
    1    6 C      1, 3, 5-7, 10, 11, 14
    2    7 N      2, 4, 9, 13
    3    8 O      8, 12
    4    1 H      15-25
########################################################################
[WARNING] Please study the warnings concerning your input carefully
-1- readin_getIntValue: could not parse ''
########################################################################

           -------------------------------------------------
          |                 G F N 2 - x T B                 |
           -------------------------------------------------

        Reference                      10.1021/acs.jctc.8b01176
      * Hamiltonian:
        H0-scaling (s, p, d)           1.850000    2.230000    2.230000
        zeta-weighting                 0.500000
      * Dispersion:
        s8                             2.700000
        a1                             0.520000
        a2                             5.000000
        s9                             5.000000
      * Repulsion:
        kExp                           1.500000    1.000000
        rExp                           1.000000
      * Coulomb:
        alpha                          2.000000
        third order                    shell-resolved
        anisotropic                    true
        a3                             3.000000
        a5                             4.000000
        cn-shift                       1.200000
        cn-exp                         4.000000
        max-rad                        5.000000

q/qsh data taken from xtbrestart
CAMM data taken from xtbrestart

          ...................................................
          :                      SETUP                      :
          :.................................................:
          :  # basis functions                  67          :
          :  # atomic orbitals                  67          :
          :  # shells                           39          :
          :  # electrons                        74          :
          :  max. iterations                   250          :
          :  Hamiltonian                  GFN2-xTB          :
          :  restarted?                       true          :
          :  GBSA solvation                  false          :
          :  PC potential                    false          :
          :  electronic temp.         7500.0000000     K    :
          :  accuracy                    1.0000000          :
          :  -> integral cutoff          0.2500000E+02      :
          :  -> integral neglect         0.1000000E-07      :
          :  -> SCF convergence          0.1000000E-05 Eh   :
          :  -> wf. convergence          0.1000000E-03 e    :
          :  Broyden damping             0.4000000          :
          ...................................................

 iter      E             dE          RMSdq      gap      omega  full diag
   1    -42.6980656 -0.426981E+02  0.200E-05    2.41       0.0  T
   2    -42.6980656  0.895284E-12  0.177E-05    2.41    1129.9  T
   3    -42.6980656 -0.894573E-11  0.705E-06    2.41    2835.4  T

   *** convergence criteria satisfied after 3 iterations ***

         #    Occupation            Energy/Eh            Energy/eV
      -------------------------------------------------------------
         1        2.0000           -0.9061632             -24.6580
       ...           ...                  ...                  ...
        31        1.9935           -0.6242265             -16.9861
        32        1.9908           -0.6160049             -16.7623
        33        1.9894           -0.6125407             -16.6681
        34        1.9713           -0.5886267             -16.0173
        35        1.9208           -0.5639249             -15.3452
        36        1.8442           -0.5468833             -14.8815
        37        1.7967           -0.5399358             -14.6924 (HOMO)
        38        0.3487           -0.4512473             -12.2791 (LUMO)
        39        0.1045           -0.4193445             -11.4109
        40        0.0536           -0.4028825             -10.9630
        41        0.0055           -0.3481267              -9.4730
        42        0.0025           -0.3293976              -8.9634
       ...           ...                  ...                  ...
        67                         10.4770349             285.0946
      -------------------------------------------------------------
                  HL-Gap            0.0886884 Eh            2.4133 eV
             Fermi-level           -0.4881863 Eh          -13.2842 eV

 SCC (total)                   0 d,  0 h,  0 min,  0.025 sec
 SCC setup                      ...        0 min,  0.000 sec (  1.180%)
 Dispersion                     ...        0 min,  0.000 sec (  1.485%)
 classical contributions        ...        0 min,  0.000 sec (  0.400%)
 integral evaluation            ...        0 min,  0.007 sec ( 26.727%)
 iterations                     ...        0 min,  0.006 sec ( 23.169%)
 molecular gradient             ...        0 min,  0.011 sec ( 46.383%)
 printout                       ...        0 min,  0.000 sec (  0.603%)

         :::::::::::::::::::::::::::::::::::::::::::::::::::::
         ::                     SUMMARY                     ::
         :::::::::::::::::::::::::::::::::::::::::::::::::::::
         :: total energy             -40.438084809075 Eh    ::
         :: gradient norm              8.788237374480 Eh/a0 ::
         :: HOMO-LUMO gap              2.413334736781 eV    ::
         ::.................................................::
         :: SCC energy               -42.698065570627 Eh    ::
         :: -> isotropic ES            0.141667063162 Eh    ::
         :: -> anisotropic ES         -0.008276265744 Eh    ::
         :: -> anisotropic XC          0.015435181563 Eh    ::
         :: -> dispersion             -0.023056821350 Eh    ::
         :: repulsion energy           2.259812503126 Eh    ::
         :: add. restraining           0.000000000000 Eh    ::
         :: total charge               1.000000000000 e     ::
         :::::::::::::::::::::::::::::::::::::::::::::::::::::

      ----------------------------------------------------------- 
     |                   =====================                   |
     |                        A N C O P T                        |
     |                   =====================                   |
     |               Approximate Normal Coordinate               |
     |                Rational Function Optimizer                |
      ----------------------------------------------------------- 

          ...................................................
          :                      SETUP                      :
          :.................................................:
          :   optimization level             crude          :
          :   max. optcycles                   200          :
          :   ANC micro-cycles                  20          :
          :   degrees of freedom                69          :
          :.................................................:
          :   RF solver                   davidson          :
          :   write xtbopt.log                true          :
          :   linear?                        false          :
          :   energy convergence         0.5000000E-03 Eh   :
          :   grad. convergence          0.1000000E-01 Eh/α :
          :   maxmium RF displ.          1.0000000          :
          :   Hlow (freq-cutoff)         0.1000000E-01      :
          :   Hmax (freq-cutoff)         5.0000000          :
          :   S6 in model hess.         20.0000000          :
          ...................................................

generating ANC from model Hessian ...
Using Lindh-Hessian (1995)
 Shifting diagonal of input Hessian by    7.5104593650385451E-003
 Lowest  eigenvalues of input Hessian
    0.000000    0.000000    0.000000    0.000000    0.000000    0.000000
    0.010000    0.010297    0.012639    0.015123    0.016645    0.017435
    0.018841    0.019405    0.024367    0.026278    0.028249    0.035448
 Highest eigenvalues
    2.118017    2.192581    2.233961    2.461101    4.013771    7.367804


........................................................................
.............................. CYCLE    1 ..............................
........................................................................

 iter      E             dE          RMSdq      gap      omega  full diag
   1    -42.6980656 -0.426981E+02  0.326E-06    2.41       0.0  T
   2    -42.6980656 -0.923706E-13  0.215E-06    2.41    9304.9  T
   3    -42.6980656 -0.284217E-13  0.145E-06    2.41   13776.7  T
     SCC iter.                  ...        0 min,  0.005 sec
     gradient                   ...        0 min,  0.011 sec
 * total energy  :   -40.4380848 Eh     change       -0.1918465E-12 Eh
   gradient norm :     8.7882374 Eh/α   predicted     0.0000000E+00 (-100.00%)
   displ. norm   :     0.8041233 α      lambda       -0.7034378E+01
   maximum displ.:     0.7804268 α      in ANC's #68, #55, #56, ...

........................................................................
.............................. CYCLE    2 ..............................
........................................................................

 iter      E             dE          RMSdq      gap      omega  full diag
   1    -42.7040550 -0.427041E+02  0.106E+00    1.78       0.0  T
   2    -42.7137129 -0.965790E-02  0.666E-01    2.45       1.0  T
   3    -42.7195334 -0.582055E-02  0.390E-01    2.06       1.0  T
   4    -42.7203510 -0.817568E-03  0.203E-01    2.21       1.0  T
   5    -42.7210205 -0.669479E-03  0.553E-02    2.14       1.0  T
   6    -42.7210809 -0.604147E-04  0.224E-02    2.16       1.0  T
   7    -42.7210857 -0.478854E-05  0.815E-03    2.16       2.5  T
   8    -42.7210863 -0.621923E-06  0.355E-03    2.16       5.6  T
   9    -42.7210865 -0.167360E-06  0.174E-03    2.16      11.5  T
  10    -42.7210865 -0.282074E-07  0.680E-04    2.16      29.4  T
  11    -42.7210865 -0.545045E-08  0.230E-04    2.16      86.8  T
     SCC iter.                  ...        0 min,  0.015 sec
     gradient                   ...        0 min,  0.011 sec
 * total energy  :   -42.1443934 Eh     change       -0.1706309E+01 Eh
   gradient norm :     0.2510336 Eh/α   predicted    -0.5807536E+01 ( 240.36%)
   displ. norm   :     0.3471842 α      lambda       -0.4862026E-01
   maximum displ.:     0.1907989 α      in ANC's #6, #55, #11, ...

........................................................................
.............................. CYCLE    3 ..............................
........................................................................

 iter      E             dE          RMSdq      gap      omega  full diag
   1    -42.6840996 -0.426841E+02  0.493E-01    2.45       0.0  T
   2    -42.6871747 -0.307509E-02  0.540E-01    1.91       1.0  T
   3    -42.6944478 -0.727311E-02  0.174E-01    2.23       1.0  T
   4    -42.6942498  0.197976E-03  0.147E-01    2.17       1.0  T
   5    -42.6944979 -0.248088E-03  0.498E-02    2.21       1.0  T
   6    -42.6945474 -0.494374E-04  0.172E-02    2.21       1.2  T
   7    -42.6945539 -0.649943E-05  0.537E-03    2.22       3.7  T
   8    -42.6945539 -0.598643E-07  0.361E-03    2.22       5.5  T
   9    -42.6945541 -0.144998E-06  0.113E-03    2.22      17.8  T
  10    -42.6945541 -0.296965E-08  0.529E-04    2.22      37.8  T
  11    -42.6945541 -0.395389E-08  0.168E-04    2.22     118.9  T
     SCC iter.                  ...        0 min,  0.015 sec
     gradient                   ...        0 min,  0.011 sec
 * total energy  :   -42.1640114 Eh     change       -0.1961802E-01 Eh
   gradient norm :     0.0809268 Eh/α   predicted    -0.2724701E-01 (  38.89%)
   displ. norm   :     0.2103085 α      lambda       -0.6518970E-02
   maximum displ.:     0.0838625 α      in ANC's #6, #5, #12, ...

........................................................................
.............................. CYCLE    4 ..............................
........................................................................

 iter      E             dE          RMSdq      gap      omega  full diag
   1    -42.6985596 -0.426986E+02  0.208E-01    2.33       0.0  T
   2    -42.6985946 -0.349974E-04  0.122E-01    2.32       1.0  T
   3    -42.6985549  0.397537E-04  0.499E-02    2.34       1.0  T
   4    -42.6985991 -0.442726E-04  0.161E-02    2.32       1.2  T
   5    -42.6986066 -0.745671E-05  0.370E-03    2.33       5.4  T
   6    -42.6986066  0.255177E-07  0.227E-03    2.32       8.8  T
   7    -42.6986067 -0.960043E-07  0.630E-04    2.32      31.8  T
   8    -42.6986067 -0.164386E-08  0.314E-04    2.32      63.7  T
     SCC iter.                  ...        0 min,  0.011 sec
     gradient                   ...        0 min,  0.011 sec
 * total energy  :   -42.1689712 Eh     change       -0.4959784E-02 Eh
   gradient norm :     0.0669651 Eh/α   predicted    -0.3403885E-02 ( -31.37%)
   displ. norm   :     0.2235572 α      lambda       -0.4644401E-02
   maximum displ.:     0.0752135 α      in ANC's #6, #38, #4, ...

........................................................................
.............................. CYCLE    5 ..............................
........................................................................

 iter      E             dE          RMSdq      gap      omega  full diag
   1    -42.6995917 -0.426996E+02  0.238E-01    2.42       0.0  T
   2    -42.6996347 -0.430509E-04  0.138E-01    2.41       1.0  T
   3    -42.6996054  0.292777E-04  0.522E-02    2.42       1.0  T
   4    -42.6996468 -0.413326E-04  0.860E-03    2.41       2.3  T
   5    -42.6996482 -0.144031E-05  0.402E-03    2.41       5.0  T
   6    -42.6996483 -0.476396E-07  0.215E-03    2.41       9.3  T
   7    -42.6996483 -0.485408E-07  0.631E-04    2.41      31.7  T
   8    -42.6996483 -0.443486E-08  0.312E-04    2.41      64.1  T
     SCC iter.                  ...        0 min,  0.011 sec
     gradient                   ...        0 min,  0.011 sec
 * total energy  :   -42.1715383 Eh     change       -0.2567132E-02 Eh
   gradient norm :     0.0566022 Eh/α   predicted    -0.2438421E-02 (  -5.01%)
   displ. norm   :     0.0824871 α      lambda       -0.6785798E-03
   maximum displ.:     0.0358952 α      in ANC's #4, #12, #11, ...

........................................................................
.............................. CYCLE    6 ..............................
........................................................................

 iter      E             dE          RMSdq      gap      omega  full diag
   1    -42.6993076 -0.426993E+02  0.731E-02    2.43       0.0  T
   2    -42.6993237 -0.160727E-04  0.434E-02    2.40       1.0  T
   3    -42.6993286 -0.487550E-05  0.280E-02    2.42       1.0  T
   4    -42.6993332 -0.464329E-05  0.960E-03    2.41       2.1  T
   5    -42.6993362 -0.296710E-05  0.194E-03    2.42      10.3  T
   6    -42.6993362 -0.623573E-07  0.983E-04    2.42      20.3  T
   7    -42.6993362 -0.502845E-08  0.493E-04    2.42      40.6  T
     SCC iter.                  ...        0 min,  0.010 sec
     gradient                   ...        0 min,  0.011 sec
 * total energy  :   -42.1720559 Eh     change       -0.5175956E-03 Eh
   gradient norm :     0.0520839 Eh/α   predicted    -0.3415818E-03 ( -34.01%)
   displ. norm   :     0.1884323 α      lambda       -0.1588084E-02
   maximum displ.:     0.0929661 α      in ANC's #4, #2, #12, ...

........................................................................
.............................. CYCLE    7 ..............................
........................................................................

 iter      E             dE          RMSdq      gap      omega  full diag
   1    -42.6972351 -0.426972E+02  0.155E-01    2.43       0.0  T
   2    -42.6973948 -0.159769E-03  0.938E-02    2.33       1.0  T
   3    -42.6975120 -0.117181E-03  0.522E-02    2.40       1.0  T
   4    -42.6975079  0.416181E-05  0.292E-02    2.36       1.0  T
   5    -42.6975313 -0.234318E-04  0.526E-03    2.38       3.8  T
   6    -42.6975320 -0.709034E-06  0.227E-03    2.38       8.8  T
   7    -42.6975320 -0.399399E-07  0.115E-03    2.38      17.4  T
   8    -42.6975321 -0.101703E-07  0.292E-04    2.38      68.5  T
   9    -42.6975321 -0.682775E-09  0.146E-04    2.38     136.7  T
     SCC iter.                  ...        0 min,  0.013 sec
     gradient                   ...        0 min,  0.011 sec
 * total energy  :   -42.1731992 Eh     change       -0.1143284E-02 Eh
   gradient norm :     0.0380566 Eh/α   predicted    -0.8221365E-03 ( -28.09%)
   displ. norm   :     0.1837177 α      lambda       -0.1460004E-02
   maximum displ.:     0.0946841 α      in ANC's #4, #1, #5, ...

........................................................................
.............................. CYCLE    8 ..............................
........................................................................

 iter      E             dE          RMSdq      gap      omega  full diag
   1    -42.6937014 -0.426937E+02  0.172E-01    2.36       0.0  T
   2    -42.6939315 -0.230099E-03  0.110E-01    2.23       1.0  T
   3    -42.6941409 -0.209363E-03  0.550E-02    2.31       1.0  T
   4    -42.6941331  0.776873E-05  0.358E-02    2.27       1.0  T
   5    -42.6941625 -0.294133E-04  0.726E-03    2.29       2.8  T
   6    -42.6941641 -0.158394E-05  0.239E-03    2.29       8.4  T
   7    -42.6941641 -0.452604E-07  0.123E-03    2.29      16.3  T
   8    -42.6941641 -0.103585E-07  0.363E-04    2.29      55.0  T
   9    -42.6941641 -0.154559E-08  0.177E-04    2.29     112.7  T
     SCC iter.                  ...        0 min,  0.013 sec
     gradient                   ...        0 min,  0.011 sec
 * total energy  :   -42.1742683 Eh     change       -0.1069175E-02 Eh
   gradient norm :     0.0230797 Eh/α   predicted    -0.7545500E-03 ( -29.43%)
   displ. norm   :     0.2146409 α      lambda       -0.1357003E-02
   maximum displ.:     0.0949860 α      in ANC's #4, #1, #12, ...

........................................................................
.............................. CYCLE    9 ..............................
........................................................................

 iter      E             dE          RMSdq      gap      omega  full diag
   1    -42.6889917 -0.426890E+02  0.227E-01    2.27       0.0  T
   2    -42.6893563 -0.364582E-03  0.152E-01    2.07       1.0  T
   3    -42.6897761 -0.419870E-03  0.774E-02    2.20       1.0  T
   4    -42.6897903 -0.141934E-04  0.510E-02    2.15       1.0  T
   5    -42.6898354 -0.450660E-04  0.115E-02    2.17       1.7  T
   6    -42.6898397 -0.431785E-05  0.357E-03    2.17       5.6  T
   7    -42.6898398 -0.801914E-07  0.195E-03    2.17      10.3  T
   8    -42.6898398 -0.321326E-07  0.659E-04    2.17      30.4  T
   9    -42.6898398 -0.647613E-08  0.301E-04    2.17      66.5  T
     SCC iter.                  ...        0 min,  0.013 sec
     gradient                   ...        0 min,  0.011 sec
 * total energy  :   -42.1752523 Eh     change       -0.9839360E-03 Eh
   gradient norm :     0.0177606 Eh/α   predicted    -0.7096447E-03 ( -27.88%)
   displ. norm   :     0.2354234 α      lambda       -0.1104297E-02
   maximum displ.:     0.0992750 α      in ANC's #4, #23, #57, ...

........................................................................
.............................. CYCLE   10 ..............................
........................................................................

 iter      E             dE          RMSdq      gap      omega  full diag
   1    -42.6828396 -0.426828E+02  0.261E-01    2.14       0.0  T
   2    -42.6832668 -0.427212E-03  0.180E-01    1.93       1.0  T
   3    -42.6837942 -0.527437E-03  0.970E-02    2.08       1.0  T
   4    -42.6838211 -0.268670E-04  0.646E-02    2.01       1.0  T
   5    -42.6838901 -0.689948E-04  0.168E-02    2.04       1.2  T
   6    -42.6838997 -0.957180E-05  0.447E-03    2.04       4.5  T
   7    -42.6838998 -0.158663E-06  0.253E-03    2.04       7.9  T
   8    -42.6838999 -0.565467E-07  0.801E-04    2.04      25.0  T
   9    -42.6838999 -0.933909E-08  0.344E-04    2.04      58.2  T
     SCC iter.                  ...        0 min,  0.013 sec
     gradient                   ...        0 min,  0.011 sec
 * total energy  :   -42.1759423 Eh     change       -0.6900130E-03 Eh
   gradient norm :     0.0227739 Eh/α   predicted    -0.5826485E-03 ( -15.56%)
   displ. norm   :     0.1246481 α      lambda       -0.4133109E-03
   maximum displ.:     0.0549357 α      in ANC's #11, #7, #2, ...

........................................................................
.............................. CYCLE   11 ..............................
........................................................................

 iter      E             dE          RMSdq      gap      omega  full diag
   1    -42.6824796 -0.426825E+02  0.113E-01    2.03       0.0  T
   2    -42.6825225 -0.428725E-04  0.759E-02    1.95       1.0  T
   3    -42.6825897 -0.672172E-04  0.489E-02    2.02       1.0  T
   4    -42.6826091 -0.194431E-04  0.269E-02    1.98       1.0  T
   5    -42.6826213 -0.122083E-04  0.687E-03    2.00       2.9  T
   6    -42.6826229 -0.157506E-05  0.198E-03    2.00      10.1  T
   7    -42.6826229 -0.229150E-07  0.117E-03    2.00      17.1  T
   8    -42.6826229 -0.154484E-07  0.314E-04    2.00      63.7  T
   9    -42.6826229 -0.934349E-09  0.152E-04    2.00     132.0  T
     SCC iter.                  ...        0 min,  0.013 sec
     gradient                   ...        0 min,  0.011 sec
 * total energy  :   -42.1762195 Eh     change       -0.2771936E-03 Eh
   gradient norm :     0.0237313 Eh/α   predicted    -0.2098840E-03 ( -24.28%)
   displ. norm   :     0.1161575 α      lambda       -0.4436725E-03
   maximum displ.:     0.0547548 α      in ANC's #11, #14, #7, ...

........................................................................
.............................. CYCLE   12 ..............................
........................................................................

 iter      E             dE          RMSdq      gap      omega  full diag
   1    -42.6827488 -0.426827E+02  0.828E-02    1.99       0.0  T
   2    -42.6827496 -0.816420E-06  0.493E-02    1.97       1.0  T
   3    -42.6827135  0.361461E-04  0.395E-02    2.00       1.0  T
   4    -42.6827571 -0.436369E-04  0.738E-03    1.98       2.7  T
   5    -42.6827584 -0.129957E-05  0.240E-03    1.98       8.3  T
   6    -42.6827586 -0.135101E-06  0.824E-04    1.98      24.3  T
   7    -42.6827586 -0.286128E-08  0.386E-04    1.98      51.8  T
     SCC iter.                  ...        0 min,  0.010 sec
     gradient                   ...        0 min,  0.011 sec
 * total energy  :   -42.1765229 Eh     change       -0.3034539E-03 Eh
   gradient norm :     0.0206554 Eh/α   predicted    -0.2248272E-03 ( -25.91%)
   displ. norm   :     0.1120494 α      lambda       -0.4246801E-03
   maximum displ.:     0.0580689 α      in ANC's #6, #11, #14, ...

........................................................................
.............................. CYCLE   13 ..............................
........................................................................

 iter      E             dE          RMSdq      gap      omega  full diag
   1    -42.6831566 -0.426832E+02  0.859E-02    1.98       0.0  T
   2    -42.6831592 -0.256038E-05  0.539E-02    1.94       1.0  T
   3    -42.6831395  0.196943E-04  0.460E-02    1.99       1.0  T
   4    -42.6831808 -0.412926E-04  0.142E-02    1.96       1.4  T
   5    -42.6831848 -0.404792E-05  0.350E-03    1.96       5.7  T
   6    -42.6831852 -0.360004E-06  0.126E-03    1.96      15.9  T
   7    -42.6831852 -0.596940E-08  0.686E-04    1.96      29.2  T
   8    -42.6831852 -0.802999E-08  0.195E-04    1.96     102.6  T
     SCC iter.                  ...        0 min,  0.011 sec
     gradient                   ...        0 min,  0.011 sec
 * total energy  :   -42.1768258 Eh     change       -0.3028983E-03 Eh
   gradient norm :     0.0179006 Eh/α   predicted    -0.2150045E-03 ( -29.02%)
   displ. norm   :     0.1043744 α      lambda       -0.4558300E-03
   maximum displ.:     0.0692556 α      in ANC's #6, #7, #13, ...

........................................................................
.............................. CYCLE   14 ..............................
........................................................................

 iter      E             dE          RMSdq      gap      omega  full diag
   1    -42.6837864 -0.426838E+02  0.693E-02    1.96       0.0  T
   2    -42.6837910 -0.455093E-05  0.421E-02    1.93       1.0  T
   3    -42.6837830  0.796208E-05  0.351E-02    1.97       1.0  T
   4    -42.6838043 -0.212964E-04  0.131E-02    1.94       1.5  T
   5    -42.6838079 -0.358145E-05  0.335E-03    1.95       6.0  T
   6    -42.6838082 -0.313039E-06  0.117E-03    1.95      17.1  T
   7    -42.6838082 -0.884453E-08  0.638E-04    1.95      31.4  T
   8    -42.6838082 -0.607760E-08  0.184E-04    1.95     108.9  T
     SCC iter.                  ...        0 min,  0.011 sec
     gradient                   ...        0 min,  0.011 sec
 * total energy  :   -42.1771649 Eh     change       -0.3390965E-03 Eh
   gradient norm :     0.0134311 Eh/α   predicted    -0.2303995E-03 ( -32.05%)
   displ. norm   :     0.1310287 α      lambda       -0.5466167E-03
   maximum displ.:     0.0858088 α      in ANC's #6, #57, #4, ...

........................................................................
.............................. CYCLE   15 ..............................
........................................................................

 iter      E             dE          RMSdq      gap      omega  full diag
   1    -42.6840100 -0.426840E+02  0.101E-01    1.95       0.0  T
   2    -42.6840388 -0.288449E-04  0.663E-02    1.89       1.0  T
   3    -42.6840694 -0.305474E-04  0.461E-02    1.95       1.0  T
   4    -42.6840883 -0.189691E-04  0.255E-02    1.91       1.0  T
   5    -42.6841010 -0.126563E-04  0.636E-03    1.92       3.1  T
   6    -42.6841023 -0.128273E-05  0.201E-03    1.92      10.0  T
   7    -42.6841023 -0.308564E-07  0.111E-03    1.92      18.0  T
   8    -42.6841023 -0.161910E-07  0.300E-04    1.92      66.6  T
   9    -42.6841023 -0.546059E-09  0.162E-04    1.92     123.8  T
     SCC iter.                  ...        0 min,  0.013 sec
     gradient                   ...        0 min,  0.012 sec
 * total energy  :   -42.1775473 Eh     change       -0.3823974E-03 Eh
   gradient norm :     0.0102194 Eh/α   predicted    -0.2779982E-03 ( -27.30%)
   displ. norm   :     0.1446388 α      lambda       -0.4976519E-03
   maximum displ.:     0.0541691 α      in ANC's #6, #21, #5, ...

........................................................................
.............................. CYCLE   16 ..............................
........................................................................

 iter      E             dE          RMSdq      gap      omega  full diag
   1    -42.6855336 -0.426855E+02  0.779E-02    1.93       0.0  T
   2    -42.6855385 -0.486057E-05  0.461E-02    1.92       1.0  T
   3    -42.6855233  0.152389E-04  0.278E-02    1.94       1.0  T
   4    -42.6855378 -0.145231E-04  0.108E-02    1.92       1.8  T
   5    -42.6855415 -0.367799E-05  0.199E-03    1.93      10.0  T
   6    -42.6855415 -0.522824E-07  0.941E-04    1.93      21.2  T
   7    -42.6855415 -0.309220E-08  0.218E-04    1.93      91.7  T
     SCC iter.                  ...        0 min,  0.010 sec
     gradient                   ...        0 min,  0.011 sec
 * total energy  :   -42.1778160 Eh     change       -0.2686412E-03 Eh
   gradient norm :     0.0106107 Eh/α   predicted    -0.2540318E-03 (  -5.44%)
   displ. norm   :     0.1322697 α      lambda       -0.3845302E-03
   maximum displ.:     0.0675756 α      in ANC's #1, #57, #10, ...

........................................................................
.............................. CYCLE   17 ..............................
........................................................................

 iter      E             dE          RMSdq      gap      omega  full diag
   1    -42.6834029 -0.426834E+02  0.105E-01    1.93       0.0  T
   2    -42.6834426 -0.396911E-04  0.748E-02    1.86       1.0  T
   3    -42.6834898 -0.471794E-04  0.460E-02    1.92       1.0  T
   4    -42.6834970 -0.720924E-05  0.316E-02    1.88       1.0  T
   5    -42.6835169 -0.199086E-04  0.734E-03    1.90       2.7  T
   6    -42.6835187 -0.183445E-05  0.193E-03    1.89      10.3  T
   7    -42.6835187 -0.338214E-07  0.107E-03    1.89      18.8  T
   8    -42.6835188 -0.126796E-07  0.247E-04    1.89      80.9  T
   9    -42.6835188 -0.784922E-09  0.110E-04    1.89     181.6  T
     SCC iter.                  ...        0 min,  0.013 sec
     gradient                   ...        0 min,  0.011 sec
 * total energy  :   -42.1779720 Eh     change       -0.1559860E-03 Eh
   gradient norm :     0.0073758 Eh/α   predicted    -0.1956317E-03 (  25.42%)
   displ. norm   :     0.0790321 α      lambda       -0.1602567E-03
   maximum displ.:     0.0450100 α      in ANC's #2, #4, #1, ...

   *** GEOMETRY OPTIMIZATION CONVERGED AFTER 17 ITERATIONS ***

------------------------------------------------------------------------
 total energy gain   :        -1.7398871 Eh    -1091.7957 kcal/mol
 total RMSD          :         0.3051959 a0        0.1615 Å
 total power (kW/mol):      -268.7101811 (step)-9240.9044 (real)
------------------------------------------------------------------------

 ANCopt (total)                0 d,  0 h,  0 min,  0.494 sec
 optimizer setup                ...        0 min,  0.000 sec (  0.070%)
 model hessian                  ...        0 min,  0.009 sec (  1.801%)
 ANC generation                 ...        0 min,  0.001 sec (  0.209%)
 coordinate transformation      ...        0 min,  0.000 sec (  0.024%)
 single point calculation       ...        0 min,  0.478 sec ( 96.613%)
 optimization log               ...        0 min,  0.003 sec (  0.607%)
 hessian update                 ...        0 min,  0.000 sec (  0.036%)
 rational function              ...        0 min,  0.002 sec (  0.489%)

================
 final structure:
================
25
 xtb: 6.6.1 (8d0f1dd)
C            3.05587658870027        1.24848607160944       -0.11419196189934
N            2.13879070176507        0.14268231377291       -0.05252880024207
C            2.43551341672918       -1.14146075506234        0.17688258115898
N            1.29626591227688       -1.87455085423268        0.17192593749309
C            0.25299997190670       -1.01978014260259       -0.07321818601456
C            0.79237530100595        0.23534327636130       -0.21969072696291
C           -0.05887419767630        1.45082962643228       -0.52444877361550
O            0.38449499185919        2.58305745770480       -0.13793871204711
N           -1.42371706595318        1.07459237845949        0.12922263245418
C           -2.11348515425178        2.06643044688514        0.64551407514833
C           -1.98110389389978       -0.22593708993914        0.09905385720301
O           -3.15859051317548       -0.41483950631615        0.26534054386672
N           -1.08563336044707       -1.27665355715272       -0.09546392638056
C           -1.59565930295830       -2.63249180867102       -0.14026941035013
H            3.75314510819555        1.20836205722709        0.72032641700375
H            3.61814652155215        1.22739957343326       -1.04965510042081
H            2.47279048050035        2.17162074987281       -0.06537555155260
H            3.41713501672078       -1.53601988612129        0.34712120991943
H           -1.65076596129147        3.04004384725193        0.63780976920508
H           -0.32438058583654        1.39038535955150       -1.61313394392700
H           -3.09113035292296        1.88160741355080        1.05508614009881
H           -1.39579009163686       -3.16013908197760        0.79479967113334
H           -1.14645997028392       -3.16970349867744       -0.97541122015398
H           -2.67442950226510       -2.58049669401255       -0.28195363441382
H            1.24291745548640       -2.87052915574829        0.33136873119590

 Bond Distances (Angstroems)
 ---------------------------
C1-N2=1.4379         C1-H15=1.0882        C1-H16=1.0916        C1-H17=1.0930        N2-C1=1.4379         N2-C3=1.3378         
N2-C6=1.3599         C3-N2=1.3378         C3-N4=1.3547         C3-H18=1.0716        N4-C3=1.3547         N4-C5=1.3708         
N4-H25=1.0101        C5-N4=1.3708         C5-C6=1.3739         C5-N13=1.3632        C6-N2=1.3599         C6-C5=1.3739         
C6-C7=1.5149         C7-C6=1.5149         C7-O8=1.2759         C7-N9=1.5594         C7-H20=1.1222        O8-C7=1.2759         
N9-C7=1.5594         N9-C10=1.3138        N9-C11=1.4153        C10-N9=1.3138        C10-H19=1.0780       C10-H21=1.0760       
C11-N9=1.4153        C11-O12=1.2041       C11-N13=1.3942       O12-C11=1.2041       N13-C5=1.3632        N13-C11=1.3942       
N13-C14=1.4493       C14-N13=1.4493       C14-H22=1.0921       C14-H23=1.0899       C14-H24=1.0893       H15-C1=1.0882        
H16-C1=1.0916        H17-C1=1.0930        H18-C3=1.0716        H19-C10=1.0780       H20-C7=1.1222        H21-C10=1.0760       
H22-C14=1.0921       H23-C14=1.0899       H24-C14=1.0893       H25-N4=1.0101        
 C  H  Rav=1.0892 sigma=0.0132  Rmin=1.0716  Rmax=1.1222    10
 C  C  Rav=1.4444 sigma=0.0705  Rmin=1.3739  Rmax=1.5149     2
 N  H  Rav=1.0101 sigma=0.0000  Rmin=1.0101  Rmax=1.0101     1
 N  C  Rav=1.3960 sigma=0.0650  Rmin=1.3138  Rmax=1.5594    11
 O  C  Rav=1.2400 sigma=0.0359  Rmin=1.2041  Rmax=1.2759     2

 selected bond angles (degree)
 --------------------
H15-C1-N2=110.33               H16-C1-N2=110.51               H16-C1-H15=109.05              H17-C1-N2=107.90               
H17-C1-H15=109.80              H17-C1-H16=109.23              C3-N2-C1=127.16                C6-N2-C1=125.01                
C6-N2-C3=107.82                N4-C3-N2=109.41                H18-C3-N2=125.72               H18-C3-N4=124.87               
C5-N4-C3=107.65                H25-N4-C3=125.27               H25-N4-C5=127.08               C6-C5-N4=106.85                
N13-C5-N4=129.25               N13-C5-C6=123.77               C5-C6-N2=108.26                C7-C6-N2=129.47                
C7-C6-C5=122.26                O8-C7-C6=117.12                N9-C7-C6=102.35                N9-C7-O8=113.03                
H20-C7-C6=106.55               H20-C7-O8=115.08               H20-C7-N9=100.75               C10-N9-C7=116.24               
C11-N9-C7=123.88               C11-N9-C10=119.69              H19-C10-N9=116.98              H21-C10-N9=119.80              
H21-C10-H19=123.22             

 selected dihedral angles (degree)
 ---------------------------------
C3-N2-C1-H15=313.98           C3-N2-C1-H16= 74.66           C3-N2-C1-H17=194.02           C6-N2-C1-H15=133.83           
C6-N2-C1-H16=254.51           C6-N2-C1-H17= 13.88           N4-C3-N2-C1=179.31            N4-C3-N2-C6=359.44            
H18-C3-N2-C1=359.78           H18-C3-N2-C6=179.91           C5-N4-C3-N2=  0.20            C5-N4-C3-H18=179.73           
H25-N4-C3-N2=180.75           H25-N4-C3-H18=  0.28          C6-C5-N4-C3=  0.24            C6-C5-N4-H25=179.68           
N13-C5-N4-C3=184.21           N13-C5-N4-H25=  3.65          C5-C6-N2-C1=180.84            C5-C6-N2-C3=  0.71            
C7-C6-N2-C1=  1.22            C7-C6-N2-C3=181.10            N2-C6-C5-N4=359.41            N2-C6-C5-N13=175.72           
C7-C6-C5-N4=179.06            C7-C6-C5-N13=355.37           O8-C7-C6-N2=332.71            O8-C7-C6-C5=153.14            
N9-C7-C6-N2=208.51            N9-C7-C6-C5= 28.94            H20-C7-C6-N2=103.18           H20-C7-C6-C5=283.61           
C10-N9-C7-C6=146.08           C10-N9-C7-O8= 19.21           C10-N9-C7-H20=255.87          C11-N9-C7-C6=321.08           
C11-N9-C7-O8=194.20           C11-N9-C7-H20= 70.86          H19-C10-N9-C7=355.76          H19-C10-N9-C11=180.55         
H21-C10-N9-C7=176.12          H21-C10-N9-C11=  0.90         
           -------------------------------------------------
          |                Final Singlepoint                |
           -------------------------------------------------

          ...................................................
          :                      SETUP                      :
          :.................................................:
          :  # basis functions                  67          :
          :  # atomic orbitals                  67          :
          :  # shells                           39          :
          :  # electrons                        74          :
          :  max. iterations                   250          :
          :  Hamiltonian                  GFN2-xTB          :
          :  restarted?                      false          :
          :  GBSA solvation                  false          :
          :  PC potential                    false          :
          :  electronic temp.         7500.0000000     K    :
          :  accuracy                    1.0000000          :
          :  -> integral cutoff          0.2500000E+02      :
          :  -> integral neglect         0.1000000E-07      :
          :  -> SCF convergence          0.1000000E-05 Eh   :
          :  -> wf. convergence          0.1000000E-03 e    :
          :  Broyden damping             0.4000000          :
          ...................................................

 iter      E             dE          RMSdq      gap      omega  full diag
   1    -42.6835188 -0.426835E+02  0.494E-05    1.89       0.0  T
   2    -42.6835188 -0.118305E-10  0.310E-05    1.89     645.5  T
   3    -42.6835188 -0.945732E-11  0.200E-05    1.89     998.7  T

   *** convergence criteria satisfied after 3 iterations ***

         #    Occupation            Energy/Eh            Energy/eV
      -------------------------------------------------------------
         1        2.0000           -0.9085694             -24.7234
       ...           ...                  ...                  ...
        31        1.9925           -0.6190664             -16.8457
        32        1.9921           -0.6177353             -16.8094
        33        1.9903           -0.6127506             -16.6738
        34        1.9735           -0.5888430             -16.0232
        35        1.9030           -0.5571062             -15.1596
        36        1.8451           -0.5452720             -14.8376
        37        1.7056           -0.5281483             -14.3716 (HOMO)
        38        0.4723           -0.4585444             -12.4776 (LUMO)
        39        0.1122           -0.4193789             -11.4119
        40        0.0285           -0.3857819             -10.4977
        41        0.0042           -0.3401020              -9.2546
        42        0.0000           -0.2269022              -6.1743
       ...           ...                  ...                  ...
        67                          0.5014273              13.6445
      -------------------------------------------------------------
                  HL-Gap            0.0696039 Eh            1.8940 eV
             Fermi-level           -0.4864232 Eh          -13.2363 eV

 SCC (total)                   0 d,  0 h,  0 min,  0.021 sec
 SCC setup                      ...        0 min,  0.000 sec (  0.833%)
 Dispersion                     ...        0 min,  0.000 sec (  0.837%)
 classical contributions        ...        0 min,  0.000 sec (  0.321%)
 integral evaluation            ...        0 min,  0.004 sec ( 21.015%)
 iterations                     ...        0 min,  0.005 sec ( 21.950%)
 molecular gradient             ...        0 min,  0.011 sec ( 54.494%)
 printout                       ...        0 min,  0.000 sec (  0.495%)

         :::::::::::::::::::::::::::::::::::::::::::::::::::::
         ::                     SUMMARY                     ::
         :::::::::::::::::::::::::::::::::::::::::::::::::::::
         :: total energy             -42.177971956172 Eh    ::
         :: gradient norm              0.007377331851 Eh/a0 ::
         :: HOMO-LUMO gap              1.894017981816 eV    ::
         ::.................................................::
         :: SCC energy               -42.683518756298 Eh    ::
         :: -> isotropic ES            0.146854619222 Eh    ::
         :: -> anisotropic ES         -0.007134279092 Eh    ::
         :: -> anisotropic XC          0.012858053701 Eh    ::
         :: -> dispersion             -0.022919062300 Eh    ::
         :: repulsion energy           0.505381408502 Eh    ::
         :: add. restraining           0.000000000000 Eh    ::
         :: total charge               1.000000000001 e     ::
         :::::::::::::::::::::::::::::::::::::::::::::::::::::

           -------------------------------------------------
          |                Property Printout                |
           -------------------------------------------------

    * Orbital Energies and Occupations

         #    Occupation            Energy/Eh            Energy/eV
      -------------------------------------------------------------
         1        2.0000           -0.9085694             -24.7234
       ...           ...                  ...                  ...
        25        1.9993           -0.6762367             -18.4013
        26        1.9991           -0.6688141             -18.1994
        27        1.9983           -0.6538014             -17.7908
        28        1.9961           -0.6343041             -17.2603
        29        1.9955           -0.6311806             -17.1753
        30        1.9948           -0.6277985             -17.0833
        31        1.9925           -0.6190664             -16.8457
        32        1.9921           -0.6177353             -16.8094
        33        1.9903           -0.6127506             -16.6738
        34        1.9735           -0.5888430             -16.0232
        35        1.9030           -0.5571062             -15.1596
        36        1.8451           -0.5452720             -14.8376
        37        1.7056           -0.5281483             -14.3716 (HOMO)
        38        0.4723           -0.4585444             -12.4776 (LUMO)
        39        0.1122           -0.4193789             -11.4119
        40        0.0285           -0.3857819             -10.4977
        41        0.0042           -0.3401020              -9.2546
        42        0.0000           -0.2269022              -6.1743
        43        0.0000           -0.1984983              -5.4014
        44        0.0000           -0.1785468              -4.8585
        45        0.0000           -0.1540255              -4.1912
        46                         -0.0791085              -2.1527
        47                         -0.0692061              -1.8832
        48                         -0.0492814              -1.3410
       ...                                ...                  ...
        67                          0.5014273              13.6445
      -------------------------------------------------------------
                  HL-Gap            0.0696039 Eh            1.8940 eV
             Fermi-level           -0.4864232 Eh          -13.2363 eV

     #   Z          covCN         q      C6AA      α(0)
     1   6 C        3.691    -0.095    22.500     6.788
     2   7 N        2.837     0.083    19.799     6.609
     3   6 C        3.059     0.041    27.032     8.526
     4   7 N        2.797    -0.062    22.429     7.034
     5   6 C        3.039     0.097    25.809     8.333
     6   6 C        3.123    -0.008    28.021     8.669
     7   6 C        3.657     0.216    17.468     5.999
     8   8 O        0.856    -0.445    22.599     6.374
     9   7 N        2.725    -0.047    22.154     6.991
    10   6 C        2.799     0.006    27.881     8.650
    11   6 C        2.732     0.308    21.768     7.639
    12   8 O        0.859    -0.339    20.506     6.071
    13   7 N        2.737    -0.056    22.316     7.016
    14   6 C        3.697    -0.070    22.021     6.712
    15   1 H        0.925     0.107     1.721     2.051
    16   1 H        0.924     0.109     1.707     2.043
    17   1 H        0.924     0.147     1.415     1.860
    18   1 H        0.926     0.124     1.583     1.968
    19   1 H        0.926     0.151     1.385     1.841
    20   1 H        0.919     0.070     2.089     2.260
    21   1 H        0.926     0.135     1.496     1.912
    22   1 H        0.924     0.087     1.908     2.160
    23   1 H        0.925     0.087     1.908     2.160
    24   1 H        0.925     0.125     1.570     1.959
    25   1 H        0.860     0.228     0.972     1.544

 Mol. C6AA /au·bohr⁶  :       6523.484083
 Mol. C8AA /au·bohr⁸  :     149896.462143
 Mol. α(0) /au        :        123.168680


Wiberg/Mayer (AO) data.
largest (>0.10) Wiberg bond orders for each atom

 ---------------------------------------------------------------------------
     #   Z sym  total        # sym  WBO       # sym  WBO       # sym  WBO
 ---------------------------------------------------------------------------
     1   6 C    3.894 --     2 N    0.985    15 H    0.961    16 H    0.952
                            17 H    0.946
     2   7 N    3.665 --     3 C    1.340     6 C    1.209     1 C    0.985
     3   6 C    3.783 --     2 N    1.340     4 N    1.271    18 H    0.953
     4   7 N    3.551 --     3 C    1.271     5 C    1.176    25 H    0.920
     5   6 C    3.897 --     6 C    1.407     4 N    1.176    13 N    1.142
     6   6 C    3.822 --     5 C    1.407     2 N    1.209     7 C    0.935
     7   6 C    3.939 --     8 O    1.291     6 C    0.935    20 H    0.862
                             9 N    0.779
     8   8 O    1.472 --     7 C    1.291
     9   7 N    3.503 --    10 C    1.492    11 C    1.022     7 C    0.779
    10   6 C    3.464 --     9 N    1.492    21 H    0.951    19 H    0.945
    11   6 C    3.875 --    12 O    1.686    13 N    1.084     9 N    1.022
    12   8 O    1.968 --    11 C    1.686    13 N    0.125
    13   7 N    3.473 --     5 C    1.142    11 C    1.084    14 C    0.977
                            12 O    0.125
    14   6 C    3.914 --    13 N    0.977    23 H    0.969    22 H    0.963
                            24 H    0.962
    15   1 H    0.983 --     1 C    0.961
    16   1 H    0.980 --     1 C    0.952
    17   1 H    0.974 --     1 C    0.946
    18   1 H    0.983 --     3 C    0.953
    19   1 H    0.972 --    10 C    0.945
    20   1 H    0.915 --     7 C    0.862
    21   1 H    0.976 --    10 C    0.951
    22   1 H    0.981 --    14 C    0.963
    23   1 H    0.984 --    14 C    0.969
    24   1 H    0.980 --    14 C    0.962
    25   1 H    0.947 --     4 N    0.920
 ---------------------------------------------------------------------------

Topologies differ in total number of bonds
Writing topology from bond orders to xtbtopo.mol

molecular dipole:
                 x           y           z       tot (Debye)
 q only:        1.986      -1.916       0.087
   full:        2.107      -2.372       0.014       8.064
molecular quadrupole (traceless):
                xx          xy          yy          xz          yz          zz
 q only:       10.740      -6.074       4.312      -0.609       1.180     -15.053
  q+dip:        8.982     -10.058       3.312      -0.047      -0.038     -12.295
   full:        8.223      -9.698       2.811       0.189       0.095     -11.034

           -------------------------------------------------
          |                Geometry Summary                 |
           -------------------------------------------------

      molecular mass/u    :      195.1988581
   center of mass at/Å    :       -0.0906917       0.0254230       0.0116687
  moments of inertia/u·Å² :        0.4804288E+03   0.7092910E+03   0.1153540E+04
rotational constants/cm⁻¹ :        0.3508872E-01   0.2376688E-01   0.1461383E-01

 * 24 selected distances

     #   Z          #   Z                                           value/Å
     1   6 C        2   7 N                                       1.4379330
     2   7 N        3   6 C                                       1.3377958
     3   6 C        4   7 N                                       1.3547438
     4   7 N        5   6 C                                       1.3708146
     2   7 N        6   6 C                                       1.3599132
     5   6 C        6   6 C                                       1.3739414
     7   6 C        8   8 O                                       1.2758944
     9   7 N       10   6 C                                       1.3138036
     9   7 N       11   6 C                                       1.4152623
    11   6 C       12   8 O                                       1.2040807
     5   6 C       13   7 N                                       1.3632382
    11   6 C       13   7 N                                       1.3941700
    13   7 N       14   6 C                                       1.4492866 (max)
     1   6 C       15   1 H                                       1.0882162
     1   6 C       16   1 H                                       1.0916426
     1   6 C       17   1 H                                       1.0929549
     3   6 C       18   1 H                                       1.0715593
    10   6 C       19   1 H                                       1.0780036
     7   6 C       20   1 H                                       1.1222223
    10   6 C       21   1 H                                       1.0759643
    14   6 C       22   1 H                                       1.0921144
    14   6 C       23   1 H                                       1.0898800
    14   6 C       24   1 H                                       1.0892765
     4   7 N       25   1 H                                       1.0100698 (min)

 * 5 distinct bonds (by element types)

   Z      Z             #   av. dist./Å        max./Å        min./Å
   1 H    6 C          10     1.0891834     1.1222223     1.0715593
   6 C    6 C           1     1.3739414     1.3739414     1.3739414
   1 H    7 N           1     1.0100698     1.0100698     1.0100698
   6 C    7 N          10     1.3796961     1.4492866     1.3138036
   6 C    8 O           2     1.2399875     1.2758944     1.2040807


optimized geometry written to: xtbopt.xyz


           -------------------------------------------------
          | TOTAL ENERGY              -42.177971956172 Eh   |
          | GRADIENT NORM               0.007377331851 Eh/α |
          | HOMO-LUMO GAP               1.894017981816 eV   |
           -------------------------------------------------

------------------------------------------------------------------------
 * finished run on 2024/06/05 at 19:59:01.153     
------------------------------------------------------------------------
 total:
 * wall-time:     0 d,  0 h,  0 min,  0.579 sec
 *  cpu-time:     0 d,  0 h,  0 min,  0.551 sec
 * ratio c/w:     0.952 speedup
 SCF:
 * wall-time:     0 d,  0 h,  0 min,  0.025 sec
 *  cpu-time:     0 d,  0 h,  0 min,  0.025 sec
 * ratio c/w:     0.988 speedup
 ANC optimizer:
 * wall-time:     0 d,  0 h,  0 min,  0.522 sec
 *  cpu-time:     0 d,  0 h,  0 min,  0.515 sec
 * ratio c/w:     0.987 speedup

