      -----------------------------------------------------------      
     |                   =====================                   |     
     |                           x T B                           |     
     |                   =====================                   |     
     |                         S. Grimme                         |     
     |          Mulliken Center for Theoretical Chemistry        |     
     |                    University of Bonn                     |     
      -----------------------------------------------------------      

   * xtb version 6.6.1 (8d0f1dd) compiled by 'conda@1efc2f54142f' on 2023-08-01

   xtb is free software: you can redistribute it and/or modify it under
   the terms of the GNU Lesser General Public License as published by
   the Free Software Foundation, either version 3 of the License, or
   (at your option) any later version.
   
   xtb is distributed in the hope that it will be useful,
   but WITHOUT ANY WARRANTY; without even the implied warranty of
   MERCHANTABILITY or FITNESS FOR A PARTICULAR PURPOSE.  See the
   GNU Lesser General Public License for more details.
   
   Cite this work as:
   * C. Bannwarth, E. Caldeweyher, S. Ehlert, A. Hansen, P. Pracht,
     J. Seibert, S. Spicher, S. Grimme, WIREs Comput. Mol. Sci., 2020, 11,
     e01493. DOI: 10.1002/wcms.1493
   
   for GFN2-xTB:
   * C. Bannwarth, S. Ehlert and S. Grimme., J. Chem. Theory Comput., 2019,
     15, 1652-1671. DOI: 10.1021/acs.jctc.8b01176
   for GFN1-xTB:
   * S. Grimme, C. Bannwarth, P. Shushkov, J. Chem. Theory Comput., 2017,
     13, 1989-2009. DOI: 10.1021/acs.jctc.7b00118
   for GFN0-xTB:
   * P. Pracht, E. Caldeweyher, S. Ehlert, S. Grimme, ChemRxiv, 2019, preprint.
     DOI: 10.26434/chemrxiv.8326202.v1
   for GFN-FF:
   * S. Spicher and S. Grimme, Angew. Chem. Int. Ed., 2020, 59, 15665-15673.
     DOI: 10.1002/anie.202004239
   
   for ALPB and GBSA implicit solvation:
   * S. Ehlert, M. Stahn, S. Spicher, S. Grimme, J. Chem. Theory Comput.,
     2021, 17, 4250-4261. DOI: 10.1021/acs.jctc.1c00471
   
   for DFT-D4:
   * E. Caldeweyher, C. Bannwarth and S. Grimme, J. Chem. Phys., 2017,
     147, 034112. DOI: 10.1063/1.4993215
   * E. Caldeweyher, S. Ehlert, A. Hansen, H. Neugebauer, S. Spicher,
     C. Bannwarth and S. Grimme, J. Chem. Phys., 2019, 150, 154122.
     DOI: 10.1063/1.5090222
   * E. Caldeweyher, J.-M. Mewes, S. Ehlert and S. Grimme, Phys. Chem. Chem. Phys.
     2020, 22, 8499-8512. DOI: 10.1039/D0CP00502A
   
   for sTDA-xTB:
   * S. Grimme and C. Bannwarth, J. Chem. Phys., 2016, 145, 054103.
     DOI: 10.1063/1.4959605
   
   in the mass-spec context:
   * V. Asgeirsson, C. Bauer and S. Grimme, Chem. Sci., 2017, 8, 4879.
     DOI: 10.1039/c7sc00601b
   * J. Koopman and S. Grimme, ACS Omega 2019, 4, 12, 15120-15133.
     DOI: 10.1021/acsomega.9b02011
   
   for metadynamics refer to:
   * S. Grimme, J. Chem. Theory Comput., 2019, 155, 2847-2862
     DOI: 10.1021/acs.jctc.9b00143
   
   for SPH calculations refer to:
   * S. Spicher and S. Grimme, J. Chem. Theory Comput., 2021, 17, 1701-1714
     DOI: 10.1021/acs.jctc.0c01306
   
   with help from (in alphabetical order)
   P. Atkinson, C. Bannwarth, F. Bohle, G. Brandenburg, E. Caldeweyher
   M. Checinski, S. Dohm, S. Ehlert, S. Ehrlich, I. Gerasimov, C. Hölzer
   A. Katbashev, J. Koopman, C. Lavigne, S. Lehtola, F. März, M. Müller,
   F. Musil, H. Neugebauer, J. Pisarek, C. Plett, P. Pracht, F. Pultar,
   J. Seibert, P. Shushkov, S. Spicher, M. Stahn, M. Steiner, T. Strunk,
   J. Stückrath, T. Rose, and J. Unsleber
   
 * started run on 2024/04/06 at 11:14:40.163     

           -------------------------------------------------
          |                Calculation Setup                |
           -------------------------------------------------

          program call               : xtb struc.xyz --opt loose --input .xc1 --gfn2
          hostname                   : n-62-30-23
          coordinate file            : struc.xyz
          omp threads                :                     1

   ID    Z sym.   atoms
    1    7 N      1, 17
    2    6 C      2-6, 8, 9, 11-16, 18-23, 25, 26, 28-33
    3    8 O      7, 10, 24, 27
    4    1 H      34-72
constraining bond 31 33 to    4.0000000 Å, actual value:    1.5258461 Å

           -------------------------------------------------
          |                 G F N 2 - x T B                 |
           -------------------------------------------------

        Reference                      10.1021/acs.jctc.8b01176
      * Hamiltonian:
        H0-scaling (s, p, d)           1.850000    2.230000    2.230000
        zeta-weighting                 0.500000
      * Dispersion:
        s8                             2.700000
        a1                             0.520000
        a2                             5.000000
        s9                             5.000000
      * Repulsion:
        kExp                           1.500000    1.000000
        rExp                           1.000000
      * Coulomb:
        alpha                          2.000000
        third order                    shell-resolved
        anisotropic                    true
        a3                             3.000000
        a5                             4.000000
        cn-shift                       1.200000
        cn-exp                         4.000000
        max-rad                        5.000000


          ...................................................
          :                      SETUP                      :
          :.................................................:
          :  # basis functions                 171          :
          :  # atomic orbitals                 171          :
          :  # shells                          105          :
          :  # electrons                       180          :
          :  max. iterations                   250          :
          :  Hamiltonian                  GFN2-xTB          :
          :  restarted?                      false          :
          :  GBSA solvation                  false          :
          :  PC potential                    false          :
          :  electronic temp.         5000.0000000     K    :
          :  accuracy                    1.0000000          :
          :  -> integral cutoff          0.2500000E+02      :
          :  -> integral neglect         0.1000000E-07      :
          :  -> SCF convergence          0.1000000E-05 Eh   :
          :  -> wf. convergence          0.1000000E-03 e    :
          :  Broyden damping             0.4000000          :
          ...................................................

 iter      E             dE          RMSdq      gap      omega  full diag
   1   -100.5973919 -0.100597E+03  0.374E+00    3.20       0.0  T
   2   -100.7362642 -0.138872E+00  0.221E+00    1.08       1.0  T
   3   -100.7049001  0.313641E-01  0.141E+00    3.29       1.0  T
   4   -100.7721690 -0.672689E-01  0.526E-01    1.50       1.0  T
   5   -100.7894292 -0.172602E-01  0.190E-01    1.98       1.0  T
   6   -100.7911978 -0.176856E-02  0.792E-02    1.77       1.0  T
   7   -100.7914750 -0.277198E-03  0.375E-02    1.83       1.0  T
   8   -100.7914914 -0.164582E-04  0.140E-02    1.83       1.0  T
   9   -100.7914976 -0.616739E-05  0.474E-03    1.82       2.5  T
  10   -100.7914988 -0.118227E-05  0.172E-03    1.82       6.8  T
  11   -100.7914989 -0.139928E-06  0.766E-04    1.82      15.4  T
  12   -100.7914989 -0.773143E-08  0.318E-04    1.82      37.0  T

   *** convergence criteria satisfied after 12 iterations ***

         #    Occupation            Energy/Eh            Energy/eV
      -------------------------------------------------------------
         1        2.0000           -0.8078051             -21.9815
       ...           ...                  ...                  ...
        84        1.9966           -0.5157491             -14.0342
        85        1.9959           -0.5128261             -13.9547
        86        1.9840           -0.4911498             -13.3649
        87        1.9795           -0.4872543             -13.2589
        88        1.9640           -0.4782114             -13.0128
        89        1.8920           -0.4602041             -12.5228
        90        1.8557           -0.4553147             -12.3897 (HOMO)
        91        0.3166           -0.3884132             -10.5693 (LUMO)
        92        0.0218           -0.3434697              -9.3463
        93        0.0041           -0.3169887              -8.6257
        94        0.0034           -0.3139726              -8.5436
        95        0.0029           -0.3112618              -8.4699
       ...           ...                  ...                  ...
       171                          0.5822580              15.8440
      -------------------------------------------------------------
                  HL-Gap            0.0669015 Eh            1.8205 eV
             Fermi-level           -0.4148687 Eh          -11.2892 eV

 SCC (total)                   0 d,  0 h,  0 min,  0.190 sec
 SCC setup                      ...        0 min,  0.001 sec (  0.534%)
 Dispersion                     ...        0 min,  0.002 sec (  0.900%)
 classical contributions        ...        0 min,  0.000 sec (  0.228%)
 integral evaluation            ...        0 min,  0.019 sec (  9.788%)
 iterations                     ...        0 min,  0.098 sec ( 51.770%)
 molecular gradient             ...        0 min,  0.069 sec ( 36.445%)
 printout                       ...        0 min,  0.001 sec (  0.328%)

         :::::::::::::::::::::::::::::::::::::::::::::::::::::
         ::                     SUMMARY                     ::
         :::::::::::::::::::::::::::::::::::::::::::::::::::::
         :: total energy             -98.311128564999 Eh    ::
         :: gradient norm              0.663131083081 Eh/a0 ::
         :: HOMO-LUMO gap              1.820481192090 eV    ::
         ::.................................................::
         :: SCC energy              -100.791498925389 Eh    ::
         :: -> isotropic ES            0.109302908418 Eh    ::
         :: -> anisotropic ES          0.005415138735 Eh    ::
         :: -> anisotropic XC          0.042392697176 Eh    ::
         :: -> dispersion             -0.075527661009 Eh    ::
         :: repulsion energy           1.386151658689 Eh    ::
         :: add. restraining           1.093002349196 Eh    ::
         :: total charge               1.000000000108 e     ::
         :::::::::::::::::::::::::::::::::::::::::::::::::::::

      ----------------------------------------------------------- 
     |                   =====================                   |
     |                        A N C O P T                        |
     |                   =====================                   |
     |               Approximate Normal Coordinate               |
     |                Rational Function Optimizer                |
      ----------------------------------------------------------- 

          ...................................................
          :                      SETUP                      :
          :.................................................:
          :   optimization level             loose          :
          :   max. optcycles                   200          :
          :   ANC micro-cycles                  20          :
          :   degrees of freedom               210          :
          :.................................................:
          :   RF solver                   davidson          :
          :   write xtbopt.log                true          :
          :   linear?                        false          :
          :   energy convergence         0.5000000E-04 Eh   :
          :   grad. convergence          0.4000000E-02 Eh/α :
          :   maxmium RF displ.          1.0000000          :
          :   Hlow (freq-cutoff)         0.1000000E-01      :
          :   Hmax (freq-cutoff)         5.0000000          :
          :   S6 in model hess.         20.0000000          :
          ...................................................

generating ANC from model Hessian ...
Using Lindh-Hessian (1995)
 Shifting diagonal of input Hessian by    6.5838181370702631E-002
 Lowest  eigenvalues of input Hessian
    0.010000    0.017666    0.000000    0.000000    0.000000    0.000000
    0.000000    0.000000    0.065888    0.065950    0.066007    0.066114
    0.066196    0.066553    0.066837    0.067206    0.067673    0.067986
 Highest eigenvalues
    2.091802    2.101794    2.107419    2.235266    2.240337    2.242888


........................................................................
.............................. CYCLE    1 ..............................
........................................................................

 iter      E             dE          RMSdq      gap      omega  full diag
   1   -100.7914989 -0.100791E+03  0.114E-04    1.82       0.0  T
   2   -100.7914989 -0.678995E-10  0.713E-05    1.82     165.2  T
   3   -100.7914989  0.665210E-10  0.496E-05    1.82     237.5  T
     SCC iter.                  ...        0 min,  0.026 sec
     gradient                   ...        0 min,  0.069 sec
 * total energy  :   -98.3111286 Eh     change       -0.4035485E-08 Eh
   gradient norm :     0.6631311 Eh/α   predicted     0.0000000E+00 (-100.00%)
   displ. norm   :     0.4530580 α      lambda       -0.2793808E+00
   maximum displ.:     0.2772052 α      in ANC's #193, #194, #192, ...

........................................................................
.............................. CYCLE    2 ..............................
........................................................................

 iter      E             dE          RMSdq      gap      omega  full diag
   1   -100.7605286 -0.100761E+03  0.241E-01    1.72       0.0  T
   2   -100.7607600 -0.231367E-03  0.160E-01    1.84       1.0  T
   3   -100.7597308  0.102918E-02  0.121E-01    1.64       1.0  T
   4   -100.7608303 -0.109948E-02  0.397E-02    1.82       1.0  T
   5   -100.7609864 -0.156144E-03  0.717E-03    1.78       1.6  T
   6   -100.7609885 -0.207041E-05  0.348E-03    1.78       3.4  T
   7   -100.7609886 -0.927467E-07  0.128E-03    1.78       9.2  T
   8   -100.7609887 -0.117093E-06  0.342E-04    1.78      34.4  T
   9   -100.7609887 -0.401633E-08  0.163E-04    1.78      72.1  T
     SCC iter.                  ...        0 min,  0.073 sec
     gradient                   ...        0 min,  0.069 sec
 * total energy  :   -98.5384523 Eh     change       -0.2273238E+00 Eh
   gradient norm :     0.4435510 Eh/α   predicted    -0.1683639E+00 ( -25.94%)
   displ. norm   :     0.6031131 α      lambda       -0.2546604E+00
   maximum displ.:     0.3814300 α      in ANC's #193, #194, #192, ...

........................................................................
.............................. CYCLE    3 ..............................
........................................................................

 iter      E             dE          RMSdq      gap      omega  full diag
   1   -100.6866906 -0.100687E+03  0.494E-01    1.25       0.0  T
   2   -100.6801415  0.654909E-02  0.394E-01    1.91       1.0  T
   3   -100.6897424 -0.960086E-02  0.254E-01    1.40       1.0  T
   4   -100.6927811 -0.303875E-02  0.123E-01    1.50       1.0  T
   5   -100.6935893 -0.808186E-03  0.298E-02    1.60       1.0  T
   6   -100.6936236 -0.343238E-04  0.270E-02    1.57       1.0  T
   7   -100.6936622 -0.385291E-04  0.869E-03    1.58       1.4  T
   8   -100.6936651 -0.297949E-05  0.356E-03    1.58       3.3  T
   9   -100.6936657 -0.606549E-06  0.921E-04    1.58      12.8  T
  10   -100.6936658 -0.141419E-07  0.377E-04    1.58      31.3  T
     SCC iter.                  ...        0 min,  0.080 sec
     gradient                   ...        0 min,  0.069 sec
 * total energy  :   -98.7596020 Eh     change       -0.2211497E+00 Eh
   gradient norm :     0.3407793 Eh/α   predicted    -0.1736467E+00 ( -21.48%)
   displ. norm   :     0.7812978 α      lambda       -0.2600567E+00
   maximum displ.:     0.5163341 α      in ANC's #193, #194, #192, ...

........................................................................
.............................. CYCLE    4 ..............................
........................................................................

 iter      E             dE          RMSdq      gap      omega  full diag
   1   -100.6014713 -0.100601E+03  0.641E-01    0.72       0.0  T
   2   -100.4797677  0.121704E+00  0.133E+00    1.07       1.0  T
   3   -100.6121273 -0.132360E+00  0.255E-01    0.86       1.0  T
   4   -100.5479139  0.642134E-01  0.889E-01    0.24       1.0  T
   5   -100.6165886 -0.686748E-01  0.114E-01    0.77       1.0  T
   6   -100.6170883 -0.499699E-03  0.662E-02    0.78       1.0  T
   7   -100.6172425 -0.154207E-03  0.468E-02    0.78       1.0  T
   8   -100.6173754 -0.132827E-03  0.135E-02    0.79       1.0  T
   9   -100.6173869 -0.115586E-04  0.290E-03    0.79       4.1  T
  10   -100.6173874 -0.486867E-06  0.117E-03    0.79      10.1  T
  11   -100.6173875 -0.788128E-07  0.214E-04    0.79      55.1  T
  12   -100.6173875 -0.124255E-08  0.112E-04    0.79     105.5  T
     SCC iter.                  ...        0 min,  0.096 sec
     gradient                   ...        0 min,  0.069 sec
 * total energy  :   -98.9918889 Eh     change       -0.2322868E+00 Eh
   gradient norm :     0.2575458 Eh/α   predicted    -0.2094011E+00 (  -9.85%)
   displ. norm   :     0.8148482 α      lambda       -0.2060397E+00
   maximum displ.:     0.5501767 α      in ANC's #193, #194, #192, ...

........................................................................
.............................. CYCLE    5 ..............................
........................................................................

 iter      E             dE          RMSdq      gap      omega  full diag
   1   -100.5122486 -0.100512E+03  0.648E-01    0.73       0.0  T
   2   -100.1897630  0.322486E+00  0.178E+00    0.23       1.0  T
   3   -100.5365140 -0.346751E+00  0.241E-01    0.41       1.0  T
   4   -100.5323370  0.417706E-02  0.227E-01    0.42       1.0  T
   5   -100.5361372 -0.380024E-02  0.138E-01    0.31       1.0  T
   6   -100.5373551 -0.121786E-02  0.657E-02    0.36       1.0  T
   7   -100.5376554 -0.300359E-03  0.332E-02    0.36       1.0  T
   8   -100.5377502 -0.947844E-04  0.640E-03    0.38       1.8  T
   9   -100.5377533 -0.308984E-05  0.205E-03    0.38       5.7  T
  10   -100.5377535 -0.157461E-06  0.855E-04    0.38      13.8  T
  11   -100.5377535 -0.139755E-07  0.419E-04    0.38      28.1  T
     SCC iter.                  ...        0 min,  0.088 sec
     gradient                   ...        0 min,  0.069 sec
 * total energy  :   -99.1265565 Eh     change       -0.1346676E+00 Eh
   gradient norm :     0.1098086 Eh/α   predicted    -0.1714227E+00 (  27.29%)
   displ. norm   :     0.6124924 α      lambda       -0.6157124E-01
   maximum displ.:     0.3704376 α      in ANC's #65, #193, #61, ...

........................................................................
.............................. CYCLE    6 ..............................
........................................................................

 iter      E             dE          RMSdq      gap      omega  full diag
   1   -100.5628288 -0.100563E+03  0.249E-01    0.40       0.0  T
   2   -100.5542105  0.861827E-02  0.299E-01    0.16       1.0  T
   3   -100.5505297  0.368085E-02  0.389E-01    0.60       1.0  T
   4   -100.5623012 -0.117716E-01  0.114E-01    0.44       1.0  T
   5   -100.5631473 -0.846112E-03  0.619E-02    0.38       1.0  T
   6   -100.5634283 -0.280989E-03  0.312E-02    0.38       1.0  T
   7   -100.5634968 -0.684681E-04  0.102E-02    0.36       1.2  T
   8   -100.5635050 -0.816866E-05  0.315E-03    0.36       3.7  T
   9   -100.5635055 -0.574943E-06  0.138E-03    0.36       8.5  T
  10   -100.5635056 -0.797765E-07  0.484E-04    0.36      24.4  T
  11   -100.5635056 -0.945494E-08  0.166E-04    0.36      70.9  T
     SCC iter.                  ...        0 min,  0.089 sec
     gradient                   ...        0 min,  0.069 sec
 * total energy  :   -99.1758198 Eh     change       -0.4926334E-01 Eh
   gradient norm :     0.0779753 Eh/α   predicted    -0.4233478E-01 ( -14.06%)
   displ. norm   :     0.6931143 α      lambda       -0.4558923E-01
   maximum displ.:     0.4162333 α      in ANC's #65, #1, #61, ...

........................................................................
.............................. CYCLE    7 ..............................
........................................................................

 iter      E             dE          RMSdq      gap      omega  full diag
   1   -100.6026103 -0.100603E+03  0.263E-01    0.33       0.0  T
   2   -100.6022433  0.367058E-03  0.174E-01    0.37       1.0  T
   3   -100.5857422  0.165011E-01  0.403E-01    0.10       1.0  T
   4   -100.6003445 -0.146023E-01  0.166E-01    0.45       1.0  T
   5   -100.6027475 -0.240297E-02  0.421E-02    0.35       1.0  T
   6   -100.6028448 -0.972579E-04  0.284E-02    0.36       1.0  T
   7   -100.6029017 -0.569896E-04  0.113E-02    0.35       1.0  T
   8   -100.6029112 -0.942645E-05  0.258E-03    0.34       4.6  T
   9   -100.6029116 -0.421886E-06  0.995E-04    0.34      11.8  T
  10   -100.6029117 -0.538012E-07  0.382E-04    0.34      30.9  T
     SCC iter.                  ...        0 min,  0.081 sec
     gradient                   ...        0 min,  0.069 sec
 * total energy  :   -99.2114641 Eh     change       -0.3564423E-01 Eh
   gradient norm :     0.0790209 Eh/α   predicted    -0.3374537E-01 (  -5.33%)
   displ. norm   :     0.6520068 α      lambda       -0.3174152E-01
   maximum displ.:     0.3444701 α      in ANC's #65, #1, #37, ...

........................................................................
.............................. CYCLE    8 ..............................
........................................................................

 iter      E             dE          RMSdq      gap      omega  full diag
   1   -100.6166588 -0.100617E+03  0.287E-01    0.20       0.0  T
   2   -100.6025313  0.141275E-01  0.413E-01    0.60       1.0  T
   3   -100.6066841 -0.415285E-02  0.358E-01    0.07       1.0  T
   4   -100.6161847 -0.950060E-02  0.160E-01    0.28       1.0  T
   5   -100.6179849 -0.180021E-02  0.675E-02    0.32       1.0  T
   6   -100.6184432 -0.458310E-03  0.108E-02    0.29       1.1  T
   7   -100.6184521 -0.885805E-05  0.380E-03    0.29       3.1  T
   8   -100.6184526 -0.500386E-06  0.178E-03    0.29       6.6  T
   9   -100.6184527 -0.118511E-06  0.721E-04    0.29      16.3  T
  10   -100.6184527 -0.416625E-07  0.245E-04    0.29      48.1  T
     SCC iter.                  ...        0 min,  0.081 sec
     gradient                   ...        0 min,  0.069 sec
 * total energy  :   -99.2336006 Eh     change       -0.2213649E-01 Eh
   gradient norm :     0.0703409 Eh/α   predicted    -0.2261763E-01 (   2.17%)
   displ. norm   :     0.4428829 α      lambda       -0.1677070E-01
   maximum displ.:     0.1865501 α      in ANC's #65, #37, #82, ...

........................................................................
.............................. CYCLE    9 ..............................
........................................................................

 iter      E             dE          RMSdq      gap      omega  full diag
   1   -100.6278282 -0.100628E+03  0.294E-01    0.11       0.0  T
   2   -100.5669800  0.608482E-01  0.807E-01    0.87       1.0  T
   3   -100.6278783 -0.608983E-01  0.233E-01    0.14       1.0  T
   4   -100.6298759 -0.199756E-02  0.133E-01    0.19       1.0  T
   5   -100.6314826 -0.160676E-02  0.419E-02    0.27       1.0  T
   6   -100.6316648 -0.182220E-03  0.750E-03    0.25       1.6  T
   7   -100.6316687 -0.385153E-05  0.293E-03    0.25       4.0  T
   8   -100.6316688 -0.134005E-06  0.142E-03    0.25       8.3  T
   9   -100.6316689 -0.419828E-07  0.761E-04    0.25      15.5  T
  10   -100.6316689 -0.423984E-07  0.359E-04    0.25      32.8  T
     SCC iter.                  ...        0 min,  0.081 sec
     gradient                   ...        0 min,  0.069 sec
 * total energy  :   -99.2458052 Eh     change       -0.1220465E-01 Eh
   gradient norm :     0.0546303 Eh/α   predicted    -0.1003009E-01 ( -17.82%)
   displ. norm   :     0.4429202 α      lambda       -0.1382764E-01
   maximum displ.:     0.1411000 α      in ANC's #37, #65, #82, ...

........................................................................
.............................. CYCLE   10 ..............................
........................................................................

 iter      E             dE          RMSdq      gap      omega  full diag
   1   -100.6273887 -0.100627E+03  0.308E-01    0.13       0.0  T
   2   -100.5678857  0.595031E-01  0.796E-01    0.80       1.0  T
   3   -100.6237573 -0.558716E-01  0.309E-01    0.07       1.0  T
   4   -100.6305626 -0.680538E-02  0.530E-02    0.24       1.0  T
   5   -100.6307373 -0.174674E-03  0.168E-02    0.23       1.0  T
   6   -100.6307534 -0.160957E-04  0.111E-02    0.24       1.1  T
   7   -100.6307604 -0.695105E-05  0.687E-03    0.24       1.7  T
   8   -100.6307631 -0.272359E-05  0.248E-03    0.24       4.8  T
   9   -100.6307635 -0.394760E-06  0.739E-04    0.24      16.0  T
  10   -100.6307635 -0.446002E-07  0.186E-04    0.24      63.4  T
     SCC iter.                  ...        0 min,  0.081 sec
     gradient                   ...        0 min,  0.069 sec
 * total energy  :   -99.2549794 Eh     change       -0.9174232E-02 Eh
   gradient norm :     0.0381856 Eh/α   predicted    -0.8270157E-02 (  -9.85%)
   displ. norm   :     0.3774373 α      lambda       -0.6280455E-02
   maximum displ.:     0.1245019 α      in ANC's #65, #37, #82, ...

........................................................................
.............................. CYCLE   11 ..............................
........................................................................

 iter      E             dE          RMSdq      gap      omega  full diag
   1   -100.6291909 -0.100629E+03  0.213E-01    0.14       0.0  T
   2   -100.5941145  0.350764E-01  0.622E-01    0.64       1.0  T
   3   -100.6288700 -0.347555E-01  0.176E-01    0.13       1.0  T
   4   -100.6308280 -0.195803E-02  0.420E-02    0.24       1.0  T
   5   -100.6309522 -0.124247E-03  0.180E-02    0.23       1.0  T
   6   -100.6309850 -0.327728E-04  0.533E-03    0.23       2.2  T
   7   -100.6309870 -0.200376E-05  0.213E-03    0.23       5.5  T
   8   -100.6309872 -0.163199E-06  0.882E-04    0.23      13.4  T
   9   -100.6309872 -0.211634E-07  0.533E-04    0.23      22.1  T
     SCC iter.                  ...        0 min,  0.073 sec
     gradient                   ...        0 min,  0.069 sec
 * total energy  :   -99.2596116 Eh     change       -0.4632155E-02 Eh
   gradient norm :     0.0369558 Eh/α   predicted    -0.3587599E-02 ( -22.55%)
   displ. norm   :     0.4156970 α      lambda       -0.5418686E-02
   maximum displ.:     0.1219645 α      in ANC's #37, #65, #68, ...

........................................................................
.............................. CYCLE   12 ..............................
........................................................................

 iter      E             dE          RMSdq      gap      omega  full diag
   1   -100.6315768 -0.100632E+03  0.184E-01    0.16       0.0  T
   2   -100.6060928  0.254840E-01  0.537E-01    0.56       1.0  T
   3   -100.6315005 -0.254077E-01  0.144E-01    0.14       1.0  T
   4   -100.6324309 -0.930457E-03  0.641E-02    0.25       1.0  T
   5   -100.6328029 -0.371948E-03  0.210E-02    0.22       1.0  T
   6   -100.6328489 -0.460417E-04  0.510E-03    0.23       2.3  T
   7   -100.6328508 -0.183888E-05  0.187E-03    0.22       6.3  T
   8   -100.6328508 -0.651432E-07  0.715E-04    0.22      16.5  T
   9   -100.6328508 -0.361736E-08  0.459E-04    0.22      25.7  T
     SCC iter.                  ...        0 min,  0.073 sec
     gradient                   ...        0 min,  0.069 sec
 * total energy  :   -99.2636088 Eh     change       -0.3997183E-02 Eh
   gradient norm :     0.0258351 Eh/α   predicted    -0.3177530E-02 ( -20.51%)
   displ. norm   :     0.4301894 α      lambda       -0.4249050E-02
   maximum displ.:     0.1350748 α      in ANC's #37, #33, #68, ...

........................................................................
.............................. CYCLE   13 ..............................
........................................................................

 iter      E             dE          RMSdq      gap      omega  full diag
   1   -100.6376497 -0.100638E+03  0.138E-01    0.19       0.0  T
   2   -100.6290729  0.857681E-02  0.318E-01    0.41       1.0  T
   3   -100.6372210 -0.814810E-02  0.117E-01    0.16       1.0  T
   4   -100.6378320 -0.611005E-03  0.476E-02    0.25       1.0  T
   5   -100.6380422 -0.210218E-03  0.147E-02    0.22       1.0  T
   6   -100.6380636 -0.214011E-04  0.529E-03    0.23       2.2  T
   7   -100.6380655 -0.192470E-05  0.219E-03    0.22       5.4  T
   8   -100.6380658 -0.246897E-06  0.649E-04    0.22      18.2  T
   9   -100.6380658 -0.102317E-07  0.374E-04    0.22      31.6  T
     SCC iter.                  ...        0 min,  0.073 sec
     gradient                   ...        0 min,  0.068 sec
 * total energy  :   -99.2663741 Eh     change       -0.2765276E-02 Eh
   gradient norm :     0.0215223 Eh/α   predicted    -0.2517696E-02 (  -8.95%)
   displ. norm   :     0.3967069 α      lambda       -0.2617775E-02
   maximum displ.:     0.1372040 α      in ANC's #1, #33, #37, ...

........................................................................
.............................. CYCLE   14 ..............................
........................................................................

 iter      E             dE          RMSdq      gap      omega  full diag
   1   -100.6382998 -0.100638E+03  0.101E-01    0.19       0.0  T
   2   -100.6355990  0.270072E-02  0.187E-01    0.33       1.0  T
   3   -100.6379063 -0.230722E-02  0.900E-02    0.17       1.0  T
   4   -100.6381199 -0.213611E-03  0.541E-02    0.20       1.0  T
   5   -100.6384306 -0.310691E-03  0.109E-02    0.22       1.1  T
   6   -100.6384381 -0.752666E-05  0.478E-03    0.22       2.5  T
   7   -100.6384393 -0.121865E-05  0.200E-03    0.22       5.9  T
   8   -100.6384395 -0.223877E-06  0.510E-04    0.22      23.1  T
   9   -100.6384395 -0.673829E-08  0.295E-04    0.22      39.9  T
     SCC iter.                  ...        0 min,  0.073 sec
     gradient                   ...        0 min,  0.069 sec
 * total energy  :   -99.2677642 Eh     change       -0.1390110E-02 Eh
   gradient norm :     0.0203720 Eh/α   predicted    -0.1514892E-02 (   8.98%)
   displ. norm   :     0.2715989 α      lambda       -0.1447002E-02
   maximum displ.:     0.0851925 α      in ANC's #1, #37, #16, ...

........................................................................
.............................. CYCLE   15 ..............................
........................................................................

 iter      E             dE          RMSdq      gap      omega  full diag
   1   -100.6406353 -0.100641E+03  0.727E-02    0.21       0.0  T
   2   -100.6405053  0.129969E-03  0.585E-02    0.24       1.0  T
   3   -100.6390406  0.146467E-02  0.135E-01    0.12       1.0  T
   4   -100.6404243 -0.138365E-02  0.465E-02    0.21       1.0  T
   5   -100.6406491 -0.224794E-03  0.548E-03    0.22       2.2  T
   6   -100.6406513 -0.226465E-05  0.207E-03    0.21       5.7  T
   7   -100.6406515 -0.200249E-06  0.966E-04    0.21      12.2  T
   8   -100.6406516 -0.303588E-07  0.309E-04    0.21      38.2  T
     SCC iter.                  ...        0 min,  0.065 sec
     gradient                   ...        0 min,  0.068 sec
 * total energy  :   -99.2687164 Eh     change       -0.9522656E-03 Eh
   gradient norm :     0.0170248 Eh/α   predicted    -0.7768926E-03 ( -18.42%)
   displ. norm   :     0.2590543 α      lambda       -0.1184165E-02
   maximum displ.:     0.0794934 α      in ANC's #16, #7, #37, ...

........................................................................
.............................. CYCLE   16 ..............................
........................................................................

 iter      E             dE          RMSdq      gap      omega  full diag
   1   -100.6408472 -0.100641E+03  0.668E-02    0.22       0.0  T
   2   -100.6405487  0.298510E-03  0.689E-02    0.19       1.0  T
   3   -100.6399134  0.635302E-03  0.108E-01    0.27       1.0  T
   4   -100.6406847 -0.771226E-03  0.413E-02    0.19       1.0  T
   5   -100.6408680 -0.183379E-03  0.628E-03    0.22       1.9  T
   6   -100.6408712 -0.320444E-05  0.193E-03    0.21       6.1  T
   7   -100.6408714 -0.140743E-06  0.100E-03    0.21      11.8  T
   8   -100.6408714 -0.397606E-07  0.333E-04    0.21      35.4  T
   9   -100.6408714 -0.249651E-08  0.197E-04    0.21      59.7  T
     SCC iter.                  ...        0 min,  0.073 sec
     gradient                   ...        0 min,  0.069 sec
 * total energy  :   -99.2695535 Eh     change       -0.8370656E-03 Eh
   gradient norm :     0.0121130 Eh/α   predicted    -0.6318262E-03 ( -24.52%)
   displ. norm   :     0.2733147 α      lambda       -0.9957764E-03
   maximum displ.:     0.0897398 α      in ANC's #16, #7, #6, ...

........................................................................
.............................. CYCLE   17 ..............................
........................................................................

 iter      E             dE          RMSdq      gap      omega  full diag
   1   -100.6417981 -0.100642E+03  0.738E-02    0.22       0.0  T
   2   -100.6408649  0.933216E-03  0.108E-01    0.16       1.0  T
   3   -100.6411803 -0.315427E-03  0.951E-02    0.26       1.0  T
   4   -100.6416737 -0.493444E-03  0.414E-02    0.19       1.0  T
   5   -100.6418431 -0.169358E-03  0.111E-02    0.22       1.1  T
   6   -100.6418547 -0.116032E-04  0.209E-03    0.21       5.6  T
   7   -100.6418548 -0.132722E-06  0.888E-04    0.21      13.3  T
   8   -100.6418549 -0.335874E-07  0.310E-04    0.21      38.1  T
     SCC iter.                  ...        0 min,  0.065 sec
     gradient                   ...        0 min,  0.069 sec
 * total energy  :   -99.2702787 Eh     change       -0.7252308E-03 Eh
   gradient norm :     0.0123674 Eh/α   predicted    -0.5350865E-03 ( -26.22%)
   displ. norm   :     0.3050065 α      lambda       -0.8988048E-03
   maximum displ.:     0.1006995 α      in ANC's #16, #6, #7, ...

........................................................................
.............................. CYCLE   18 ..............................
........................................................................

 iter      E             dE          RMSdq      gap      omega  full diag
   1   -100.6413674 -0.100641E+03  0.792E-02    0.22       0.0  T
   2   -100.6400662  0.130116E-02  0.127E-01    0.14       1.0  T
   3   -100.6408157 -0.749439E-03  0.926E-02    0.26       1.0  T
   4   -100.6413837 -0.568001E-03  0.233E-02    0.21       1.0  T
   5   -100.6414232 -0.394912E-04  0.116E-02    0.22       1.0  T
   6   -100.6414373 -0.141266E-04  0.206E-03    0.21       5.7  T
   7   -100.6414373 -0.163966E-07  0.139E-03    0.21       8.5  T
   8   -100.6414374 -0.118778E-06  0.347E-04    0.21      33.9  T
   9   -100.6414374 -0.469656E-08  0.178E-04    0.21      66.2  T
     SCC iter.                  ...        0 min,  0.073 sec
     gradient                   ...        0 min,  0.068 sec
 * total energy  :   -99.2709696 Eh     change       -0.6908558E-03 Eh
   gradient norm :     0.0128153 Eh/α   predicted    -0.4912157E-03 ( -28.90%)
   displ. norm   :     0.3536844 α      lambda       -0.1028211E-02
   maximum displ.:     0.1130571 α      in ANC's #13, #16, #15, ...

........................................................................
.............................. CYCLE   19 ..............................
........................................................................

 iter      E             dE          RMSdq      gap      omega  full diag
   1   -100.6430029 -0.100643E+03  0.896E-02    0.22       0.0  T
   2   -100.6420544  0.948525E-03  0.113E-01    0.15       1.0  T
   3   -100.6417503  0.304149E-03  0.130E-01    0.29       1.0  T
   4   -100.6430094 -0.125917E-02  0.247E-02    0.21       1.0  T
   5   -100.6430464 -0.369555E-04  0.139E-02    0.22       1.0  T
   6   -100.6430666 -0.202066E-04  0.291E-03    0.21       4.0  T
   7   -100.6430669 -0.272168E-06  0.154E-03    0.21       7.6  T
   8   -100.6430670 -0.128496E-06  0.432E-04    0.21      27.3  T
   9   -100.6430670 -0.860538E-08  0.226E-04    0.21      52.0  T
     SCC iter.                  ...        0 min,  0.073 sec
     gradient                   ...        0 min,  0.069 sec
 * total energy  :   -99.2717420 Eh     change       -0.7724474E-03 Eh
   gradient norm :     0.0118960 Eh/α   predicted    -0.5784218E-03 ( -25.12%)
   displ. norm   :     0.3840231 α      lambda       -0.9505089E-03
   maximum displ.:     0.1224310 α      in ANC's #13, #16, #6, ...

........................................................................
.............................. CYCLE   20 ..............................
........................................................................

 iter      E             dE          RMSdq      gap      omega  full diag
   1   -100.6422655 -0.100642E+03  0.952E-02    0.22       0.0  T
   2   -100.6418628  0.402696E-03  0.864E-02    0.17       1.0  T
   3   -100.6396870  0.217578E-02  0.175E-01    0.32       1.0  T
   4   -100.6422764 -0.258937E-02  0.197E-02    0.21       1.0  T
   5   -100.6423020 -0.256163E-04  0.768E-03    0.22       1.5  T
   6   -100.6423065 -0.453859E-05  0.426E-03    0.21       2.8  T
   7   -100.6423076 -0.110504E-05  0.204E-03    0.21       5.8  T
   8   -100.6423079 -0.262135E-06  0.526E-04    0.21      22.4  T
   9   -100.6423079 -0.157205E-07  0.247E-04    0.21      47.7  T
     SCC iter.                  ...        0 min,  0.074 sec
     gradient                   ...        0 min,  0.068 sec
 * total energy  :   -99.2724609 Eh     change       -0.7188398E-03 Eh
   gradient norm :     0.0115545 Eh/α   predicted    -0.5453489E-03 ( -24.13%)
   displ. norm   :     0.3765880 α      lambda       -0.9174892E-03
   maximum displ.:     0.1326073 α      in ANC's #13, #6, #15, ...
 * RMSD in coord.:     0.7461013 α      energy gain  -0.9613323E+00 Eh

generating ANC from model Hessian ...
Using Lindh-Hessian (1995)
 Shifting diagonal of input Hessian by    9.9803458846474940E-003
 Lowest  eigenvalues of input Hessian
    0.000000    0.000000    0.000000    0.000000    0.000000    0.000000
    0.010000    0.010033    0.010052    0.010083    0.010149    0.010273
    0.010379    0.010573    0.010677    0.010763    0.010832    0.010907
 Highest eigenvalues
    1.962569    1.982728    2.045993    2.077780    2.169481    2.182312


........................................................................
.............................. CYCLE   21 ..............................
........................................................................

 iter      E             dE          RMSdq      gap      omega  full diag
   1   -100.6447906 -0.100645E+03  0.954E-02    0.21       0.0  T
   2   -100.6447943 -0.362977E-05  0.562E-02    0.21       1.0  T
   3   -100.6438096  0.984662E-03  0.104E-01    0.26       1.0  T
   4   -100.6446612 -0.851577E-03  0.420E-02    0.19       1.0  T
   5   -100.6448006 -0.139423E-03  0.121E-02    0.22       1.0  T
   6   -100.6448145 -0.138868E-04  0.347E-03    0.21       3.4  T
   7   -100.6448151 -0.578450E-06  0.143E-03    0.21       8.2  T
   8   -100.6448151 -0.953638E-07  0.424E-04    0.21      27.8  T
   9   -100.6448152 -0.875887E-08  0.225E-04    0.21      52.3  T
     SCC iter.                  ...        0 min,  0.073 sec
     gradient                   ...        0 min,  0.069 sec
 * total energy  :   -99.2731486 Eh     change       -0.6877288E-03 Eh
   gradient norm :     0.0124297 Eh/α   predicted     0.0000000E+00 (-100.00%)
   displ. norm   :     0.2498313 α      lambda       -0.1350277E-02
   maximum displ.:     0.1331037 α      in ANC's #16, #19, #14, ...

........................................................................
.............................. CYCLE   22 ..............................
........................................................................

 iter      E             dE          RMSdq      gap      omega  full diag
   1   -100.6456700 -0.100646E+03  0.839E-02    0.19       0.0  T
   2   -100.6436312  0.203886E-02  0.158E-01    0.30       1.0  T
   3   -100.6453087 -0.167749E-02  0.820E-02    0.17       1.0  T
   4   -100.6457396 -0.430931E-03  0.172E-02    0.20       1.0  T
   5   -100.6457613 -0.217474E-04  0.848E-03    0.21       1.4  T
   6   -100.6457680 -0.667639E-05  0.263E-03    0.21       4.5  T
   7   -100.6457683 -0.310465E-06  0.101E-03    0.21      11.6  T
   8   -100.6457684 -0.446407E-07  0.295E-04    0.21      40.0  T
   9   -100.6457684 -0.490147E-08  0.112E-04    0.21     105.5  T
     SCC iter.                  ...        0 min,  0.073 sec
     gradient                   ...        0 min,  0.069 sec
 * total energy  :   -99.2741929 Eh     change       -0.1044278E-02 Eh
   gradient norm :     0.0065291 Eh/α   predicted    -0.7172811E-03 ( -31.31%)
   displ. norm   :     0.4791913 α      lambda       -0.1641231E-02
   maximum displ.:     0.2021669 α      in ANC's #14, #7, #16, ...

........................................................................
.............................. CYCLE   23 ..............................
........................................................................

 iter      E             dE          RMSdq      gap      omega  full diag
   1   -100.6455790 -0.100646E+03  0.151E-01    0.21       0.0  T
   2   -100.6454657  0.113347E-03  0.933E-02    0.18       1.0  T
   3   -100.6369824  0.848330E-02  0.310E-01    0.41       1.0  T
   4   -100.6455955 -0.861314E-02  0.212E-02    0.21       1.0  T
   5   -100.6456153 -0.197401E-04  0.122E-02    0.20       1.0  T
   6   -100.6456286 -0.133097E-04  0.486E-03    0.21       2.4  T
   7   -100.6456298 -0.123918E-05  0.196E-03    0.21       6.0  T
   8   -100.6456300 -0.231222E-06  0.445E-04    0.21      26.5  T
   9   -100.6456300 -0.101194E-07  0.245E-04    0.21      48.2  T
     SCC iter.                  ...        0 min,  0.073 sec
     gradient                   ...        0 min,  0.069 sec
 * total energy  :   -99.2754507 Eh     change       -0.1257813E-02 Eh
   gradient norm :     0.0098223 Eh/α   predicted    -0.1009262E-02 ( -19.76%)
   displ. norm   :     0.5857998 α      lambda       -0.1473116E-02
   maximum displ.:     0.2716454 α      in ANC's #14, #7, #36, ...

........................................................................
.............................. CYCLE   24 ..............................
........................................................................

 iter      E             dE          RMSdq      gap      omega  full diag
   1   -100.6420432 -0.100642E+03  0.182E-01    0.22       0.0  T
   2   -100.6416855  0.357764E-03  0.123E-01    0.16       1.0  T
   3   -100.6290945  0.125910E-01  0.384E-01    0.44       1.0  T
   4   -100.6421168 -0.130223E-01  0.328E-02    0.21       1.0  T
   5   -100.6421971 -0.802817E-04  0.735E-03    0.21       1.6  T
   6   -100.6421989 -0.181186E-05  0.434E-03    0.21       2.7  T
   7   -100.6421980  0.885075E-06  0.434E-03    0.21       2.7  T
   8   -100.6421998 -0.185977E-05  0.941E-04    0.21      12.5  T
   9   -100.6421999 -0.756805E-07  0.365E-04    0.21      32.3  T
  10   -100.6421999 -0.631304E-08  0.158E-04    0.21      74.4  T
     SCC iter.                  ...        0 min,  0.081 sec
     gradient                   ...        0 min,  0.068 sec
 * total energy  :   -99.2766145 Eh     change       -0.1163797E-02 Eh
   gradient norm :     0.0226237 Eh/α   predicted    -0.9893183E-03 ( -14.99%)
   displ. norm   :     0.5700952 α      lambda       -0.1584681E-02
   maximum displ.:     0.2700635 α      in ANC's #14, #7, #13, ...

........................................................................
.............................. CYCLE   25 ..............................
........................................................................

 iter      E             dE          RMSdq      gap      omega  full diag
   1   -100.6418993 -0.100642E+03  0.156E-01    0.22       0.0  T
   2   -100.6410904  0.808902E-03  0.127E-01    0.15       1.0  T
   3   -100.6331688  0.792158E-02  0.319E-01    0.40       1.0  T
   4   -100.6419570 -0.878815E-02  0.290E-02    0.21       1.0  T
   5   -100.6420128 -0.557956E-04  0.902E-03    0.21       1.3  T
   6   -100.6420150 -0.226158E-05  0.683E-03    0.20       1.7  T
   7   -100.6420183 -0.330387E-05  0.292E-03    0.21       4.0  T
   8   -100.6420190 -0.681192E-06  0.622E-04    0.21      19.0  T
   9   -100.6420190 -0.279011E-07  0.300E-04    0.21      39.2  T
     SCC iter.                  ...        0 min,  0.073 sec
     gradient                   ...        0 min,  0.068 sec
 * total energy  :   -99.2779124 Eh     change       -0.1297950E-02 Eh
   gradient norm :     0.0264142 Eh/α   predicted    -0.1049883E-02 ( -19.11%)
   displ. norm   :     0.5385527 α      lambda       -0.2347655E-02
   maximum displ.:     0.2395451 α      in ANC's #14, #13, #7, ...

........................................................................
.............................. CYCLE   26 ..............................
........................................................................

 iter      E             dE          RMSdq      gap      omega  full diag
   1   -100.6506486 -0.100651E+03  0.135E-01    0.22       0.0  T
   2   -100.6492308  0.141779E-02  0.141E-01    0.13       1.0  T
   3   -100.6462333  0.299754E-02  0.232E-01    0.34       1.0  T
   4   -100.6507024 -0.446913E-02  0.241E-02    0.20       1.0  T
   5   -100.6507381 -0.356866E-04  0.104E-02    0.21       1.1  T
   6   -100.6507468 -0.866256E-05  0.553E-03    0.20       2.1  T
   7   -100.6507490 -0.220646E-05  0.181E-03    0.21       6.5  T
   8   -100.6507491 -0.120112E-06  0.478E-04    0.20      24.6  T
   9   -100.6507491 -0.897592E-08  0.288E-04    0.20      40.9  T
     SCC iter.                  ...        0 min,  0.073 sec
     gradient                   ...        0 min,  0.069 sec
 * total energy  :   -99.2796026 Eh     change       -0.1690168E-02 Eh
   gradient norm :     0.0135683 Eh/α   predicted    -0.1514284E-02 ( -10.41%)
   displ. norm   :     0.6848925 α      lambda       -0.2004503E-02
   maximum displ.:     0.3164976 α      in ANC's #14, #7, #13, ...

........................................................................
.............................. CYCLE   27 ..............................
........................................................................

 iter      E             dE          RMSdq      gap      omega  full diag
   1   -100.6459569 -0.100646E+03  0.212E-01    0.19       0.0  T
   2   -100.6461237 -0.166855E-03  0.127E-01    0.21       1.0  T
   3   -100.6448594  0.126430E-02  0.129E-01    0.19       1.0  T
   4   -100.6443353  0.524112E-03  0.142E-01    0.14       1.0  T
   5   -100.6456876 -0.135234E-02  0.810E-02    0.26       1.0  T
   6   -100.6463261 -0.638489E-03  0.736E-03    0.20       1.6  T
   7   -100.6463291 -0.293311E-05  0.338E-03    0.20       3.5  T
   8   -100.6463294 -0.314393E-06  0.115E-03    0.20      10.3  T
   9   -100.6463295 -0.893943E-07  0.479E-04    0.20      24.6  T
  10   -100.6463295 -0.996135E-08  0.234E-04    0.20      50.3  T
     SCC iter.                  ...        0 min,  0.081 sec
     gradient                   ...        0 min,  0.068 sec
 * total energy  :   -99.2808294 Eh     change       -0.1226831E-02 Eh
   gradient norm :     0.0295891 Eh/α   predicted    -0.1472386E-02 (  20.02%)
   displ. norm   :     0.3769673 α      lambda       -0.1502706E-02
   maximum displ.:     0.1438024 α      in ANC's #13, #14, #7, ...

........................................................................
.............................. CYCLE   28 ..............................
........................................................................

 iter      E             dE          RMSdq      gap      omega  full diag
   1   -100.6544916 -0.100654E+03  0.905E-02    0.21       0.0  T
   2   -100.6534068  0.108478E-02  0.115E-01    0.14       1.0  T
   3   -100.6529690  0.437784E-03  0.139E-01    0.28       1.0  T
   4   -100.6545116 -0.154256E-02  0.219E-02    0.19       1.0  T
   5   -100.6545374 -0.257567E-04  0.160E-02    0.21       1.0  T
   6   -100.6545638 -0.263996E-04  0.290E-03    0.20       4.1  T
   7   -100.6545642 -0.422616E-06  0.119E-03    0.20       9.9  T
   8   -100.6545642 -0.368966E-07  0.375E-04    0.20      31.5  T
   9   -100.6545642 -0.562373E-08  0.181E-04    0.20      64.9  T
     SCC iter.                  ...        0 min,  0.073 sec
     gradient                   ...        0 min,  0.069 sec
 * total energy  :   -99.2818646 Eh     change       -0.1035164E-02 Eh
   gradient norm :     0.0123426 Eh/α   predicted    -0.8581315E-03 ( -17.10%)
   displ. norm   :     0.6275269 α      lambda       -0.1235039E-02
   maximum displ.:     0.2577824 α      in ANC's #14, #13, #7, ...

........................................................................
.............................. CYCLE   29 ..............................
........................................................................

 iter      E             dE          RMSdq      gap      omega  full diag
   1   -100.6489520 -0.100649E+03  0.140E-01    0.20       0.0  T
   2   -100.6484821  0.469964E-03  0.103E-01    0.17       1.0  T
   3   -100.6406267  0.785536E-02  0.301E-01    0.37       1.0  T
   4   -100.6486966 -0.806989E-02  0.528E-02    0.17       1.0  T
   5   -100.6489917 -0.295127E-03  0.107E-02    0.21       1.1  T
   6   -100.6489999 -0.818857E-05  0.339E-03    0.20       3.5  T
   7   -100.6490002 -0.264282E-06  0.137E-03    0.20       8.6  T
   8   -100.6490002 -0.605840E-07  0.526E-04    0.20      22.4  T
   9   -100.6490003 -0.213445E-07  0.224E-04    0.20      52.6  T
     SCC iter.                  ...        0 min,  0.073 sec
     gradient                   ...        0 min,  0.068 sec
 * total energy  :   -99.2825953 Eh     change       -0.7306517E-03 Eh
   gradient norm :     0.0133077 Eh/α   predicted    -0.8607030E-03 (  17.80%)
   displ. norm   :     0.3751457 α      lambda       -0.7491286E-03
   maximum displ.:     0.1535784 α      in ANC's #12, #14, #6, ...

........................................................................
.............................. CYCLE   30 ..............................
........................................................................

 iter      E             dE          RMSdq      gap      omega  full diag
   1   -100.6552940 -0.100655E+03  0.904E-02    0.21       0.0  T
   2   -100.6547131  0.580938E-03  0.895E-02    0.16       1.0  T
   3   -100.6529143  0.179882E-02  0.165E-01    0.30       1.0  T
   4   -100.6552507 -0.233647E-02  0.308E-02    0.19       1.0  T
   5   -100.6553216 -0.709015E-04  0.160E-02    0.21       1.0  T
   6   -100.6553458 -0.242175E-04  0.338E-03    0.20       3.5  T
   7   -100.6553464 -0.534951E-06  0.168E-03    0.20       7.0  T
   8   -100.6553465 -0.162983E-06  0.386E-04    0.20      30.5  T
   9   -100.6553466 -0.689924E-08  0.171E-04    0.20      69.0  T
     SCC iter.                  ...        0 min,  0.073 sec
     gradient                   ...        0 min,  0.069 sec
 * total energy  :   -99.2830576 Eh     change       -0.4623084E-03 Eh
   gradient norm :     0.0102838 Eh/α   predicted    -0.4272797E-03 (  -7.58%)
   displ. norm   :     0.4123831 α      lambda       -0.6250268E-03
   maximum displ.:     0.1929025 α      in ANC's #12, #6, #7, ...

........................................................................
.............................. CYCLE   31 ..............................
........................................................................

 iter      E             dE          RMSdq      gap      omega  full diag
   1   -100.6579691 -0.100658E+03  0.128E-01    0.21       0.0  T
   2   -100.6579796 -0.104709E-04  0.741E-02    0.20       1.0  T
   3   -100.6573681  0.611475E-03  0.789E-02    0.27       1.0  T
   4   -100.6577873 -0.419168E-03  0.450E-02    0.18       1.0  T
   5   -100.6579777 -0.190457E-03  0.114E-02    0.20       1.0  T
   6   -100.6579895 -0.118147E-04  0.435E-03    0.20       2.7  T
   7   -100.6579906 -0.107790E-05  0.186E-03    0.20       6.3  T
   8   -100.6579908 -0.170422E-06  0.640E-04    0.20      18.4  T
   9   -100.6579908 -0.272405E-07  0.263E-04    0.20      44.8  T
     SCC iter.                  ...        0 min,  0.073 sec
     gradient                   ...        0 min,  0.069 sec
 * total energy  :   -99.2832054 Eh     change       -0.1478737E-03 Eh
   gradient norm :     0.0163817 Eh/α   predicted    -0.3656616E-03 ( 147.28%)
   displ. norm   :     0.2686519 α      lambda       -0.6172458E-03
   maximum displ.:     0.1194243 α      in ANC's #12, #6, #13, ...

........................................................................
.............................. CYCLE   32 ..............................
........................................................................

 iter      E             dE          RMSdq      gap      omega  full diag
   1   -100.6583569 -0.100658E+03  0.608E-02    0.22       0.0  T
   2   -100.6572280  0.112888E-02  0.111E-01    0.14       1.0  T
   3   -100.6581271 -0.899116E-03  0.611E-02    0.24       1.0  T
   4   -100.6583857 -0.258552E-03  0.156E-02    0.22       1.0  T
   5   -100.6584059 -0.202071E-04  0.653E-03    0.21       1.8  T
   6   -100.6584093 -0.336472E-05  0.272E-03    0.21       4.3  T
   7   -100.6584097 -0.399671E-06  0.999E-04    0.21      11.8  T
   8   -100.6584097 -0.608867E-07  0.331E-04    0.21      35.6  T
     SCC iter.                  ...        0 min,  0.065 sec
     gradient                   ...        0 min,  0.069 sec
 * total energy  :   -99.2835477 Eh     change       -0.3422400E-03 Eh
   gradient norm :     0.0078013 Eh/α   predicted    -0.3309031E-03 (  -3.31%)
   displ. norm   :     0.2644578 α      lambda       -0.3655772E-03
   maximum displ.:     0.1312304 α      in ANC's #12, #6, #4, ...

........................................................................
.............................. CYCLE   33 ..............................
........................................................................

 iter      E             dE          RMSdq      gap      omega  full diag
   1   -100.6581850 -0.100658E+03  0.604E-02    0.20       0.0  T
   2   -100.6580742  0.110859E-03  0.516E-02    0.23       1.0  T
   3   -100.6570095  0.106465E-02  0.108E-01    0.13       1.0  T
   4   -100.6581438 -0.113431E-02  0.243E-02    0.21       1.0  T
   5   -100.6581879 -0.441305E-04  0.108E-02    0.21       1.1  T
   6   -100.6582003 -0.123203E-04  0.153E-03    0.20       7.7  T
   7   -100.6582003 -0.595851E-07  0.747E-04    0.20      15.8  T
   8   -100.6582004 -0.217942E-07  0.270E-04    0.20      43.7  T
     SCC iter.                  ...        0 min,  0.065 sec
     gradient                   ...        0 min,  0.069 sec
 * total energy  :   -99.2836250 Eh     change       -0.7728619E-04 Eh
   gradient norm :     0.0119803 Eh/α   predicted    -0.1955758E-03 ( 153.05%)
   displ. norm   :     0.2696708 α      lambda       -0.4157273E-03
   maximum displ.:     0.1340054 α      in ANC's #12, #6, #4, ...

........................................................................
.............................. CYCLE   34 ..............................
........................................................................

 iter      E             dE          RMSdq      gap      omega  full diag
   1   -100.6567297 -0.100657E+03  0.736E-02    0.21       0.0  T
   2   -100.6566819  0.478560E-04  0.474E-02    0.19       1.0  T
   3   -100.6541848  0.249711E-02  0.161E-01    0.31       1.0  T
   4   -100.6567362 -0.255144E-02  0.924E-03    0.21       1.3  T
   5   -100.6567395 -0.326523E-05  0.681E-03    0.20       1.7  T
   6   -100.6567434 -0.389551E-05  0.293E-03    0.21       4.0  T
   7   -100.6567439 -0.488511E-06  0.967E-04    0.21      12.2  T
   8   -100.6567439 -0.651607E-07  0.231E-04    0.21      50.9  T
     SCC iter.                  ...        0 min,  0.065 sec
     gradient                   ...        0 min,  0.069 sec
 * total energy  :   -99.2837967 Eh     change       -0.1717564E-03 Eh
   gradient norm :     0.0122040 Eh/α   predicted    -0.2229852E-03 (  29.83%)
   displ. norm   :     0.1922222 α      lambda       -0.4329305E-03
   maximum displ.:     0.0906468 α      in ANC's #12, #14, #6, ...

........................................................................
.............................. CYCLE   35 ..............................
........................................................................

 iter      E             dE          RMSdq      gap      omega  full diag
   1   -100.6671937 -0.100667E+03  0.496E-02    0.23       0.0  T
   2   -100.6668699  0.323822E-03  0.707E-02    0.16       1.0  T
   3   -100.6669213 -0.513725E-04  0.634E-02    0.25       1.0  T
   4   -100.6672407 -0.319421E-03  0.263E-02    0.21       1.0  T
   5   -100.6672516 -0.109433E-04  0.209E-02    0.20       1.0  T
   6   -100.6672939 -0.422332E-04  0.266E-03    0.21       4.4  T
   7   -100.6672943 -0.467721E-06  0.997E-04    0.21      11.8  T
   8   -100.6672943 -0.229525E-07  0.458E-04    0.21      25.7  T
     SCC iter.                  ...        0 min,  0.065 sec
     gradient                   ...        0 min,  0.069 sec
 * total energy  :   -99.2837950 Eh     change        0.1731511E-05 Eh
   gradient norm :     0.0170625 Eh/α   predicted    -0.2244667E-03 (*******%)
   displ. norm   :     0.2193889 α      lambda       -0.4211749E-03
   maximum displ.:     0.0840643 α      in ANC's #12, #6, #14, ...

........................................................................
.............................. CYCLE   36 ..............................
........................................................................

 iter      E             dE          RMSdq      gap      omega  full diag
   1   -100.6589326 -0.100659E+03  0.666E-02    0.20       0.0  T
   2   -100.6587954  0.137148E-03  0.568E-02    0.24       1.0  T
   3   -100.6575757  0.121971E-02  0.117E-01    0.13       1.0  T
   4   -100.6588358 -0.126004E-02  0.355E-02    0.21       1.0  T
   5   -100.6589425 -0.106741E-03  0.135E-02    0.21       1.0  T
   6   -100.6589608 -0.183407E-04  0.237E-03    0.21       5.0  T
   7   -100.6589611 -0.218376E-06  0.142E-03    0.21       8.3  T
   8   -100.6589612 -0.113400E-06  0.436E-04    0.21      27.1  T
   9   -100.6589612 -0.113923E-07  0.170E-04    0.21      69.4  T
     SCC iter.                  ...        0 min,  0.073 sec
     gradient                   ...        0 min,  0.069 sec
 * total energy  :   -99.2840061 Eh     change       -0.2111280E-03 Eh
   gradient norm :     0.0067788 Eh/α   predicted    -0.2207263E-03 (   4.55%)
   displ. norm   :     0.1594258 α      lambda       -0.1880348E-03
   maximum displ.:     0.0761331 α      in ANC's #12, #6, #4, ...

........................................................................
.............................. CYCLE   37 ..............................
........................................................................

 iter      E             dE          RMSdq      gap      omega  full diag
   1   -100.6588174 -0.100659E+03  0.355E-02    0.20       0.0  T
   2   -100.6587828  0.345968E-04  0.299E-02    0.23       1.0  T
   3   -100.6584699  0.312908E-03  0.591E-02    0.17       1.0  T
   4   -100.6587579 -0.288023E-03  0.259E-02    0.21       1.0  T
   5   -100.6588219 -0.640436E-04  0.629E-03    0.21       1.9  T
   6   -100.6588257 -0.376815E-05  0.153E-03    0.21       7.7  T
   7   -100.6588258 -0.930136E-07  0.941E-04    0.21      12.5  T
   8   -100.6588259 -0.560092E-07  0.331E-04    0.21      35.6  T
     SCC iter.                  ...        0 min,  0.065 sec
     gradient                   ...        0 min,  0.069 sec
 * total energy  :   -99.2840719 Eh     change       -0.6579673E-04 Eh
   gradient norm :     0.0067548 Eh/α   predicted    -0.9640807E-04 (  46.52%)
   displ. norm   :     0.1852338 α      lambda       -0.1320378E-03
   maximum displ.:     0.1014587 α      in ANC's #12, #6, #4, ...

........................................................................
.............................. CYCLE   38 ..............................
........................................................................

 iter      E             dE          RMSdq      gap      omega  full diag
   1   -100.6595977 -0.100660E+03  0.314E-02    0.21       0.0  T
   2   -100.6595846  0.131278E-04  0.211E-02    0.20       1.0  T
   3   -100.6591103  0.474220E-03  0.698E-02    0.25       1.0  T
   4   -100.6595959 -0.485518E-03  0.614E-03    0.21       1.9  T
   5   -100.6595986 -0.277382E-05  0.309E-03    0.21       3.8  T
   6   -100.6595995 -0.879600E-06  0.107E-03    0.21      11.1  T
   7   -100.6595996 -0.667107E-07  0.408E-04    0.21      28.9  T
   8   -100.6595996 -0.593069E-08  0.182E-04    0.21      64.8  T
     SCC iter.                  ...        0 min,  0.065 sec
     gradient                   ...        0 min,  0.069 sec
 * total energy  :   -99.2841761 Eh     change       -0.1041543E-03 Eh
   gradient norm :     0.0040801 Eh/α   predicted    -0.6828735E-04 ( -34.44%)
   displ. norm   :     0.3703434 α      lambda       -0.2055269E-03
   maximum displ.:     0.1926422 α      in ANC's #12, #6, #4, ...

........................................................................
.............................. CYCLE   39 ..............................
........................................................................

 iter      E             dE          RMSdq      gap      omega  full diag
   1   -100.6605823 -0.100661E+03  0.593E-02    0.22       0.0  T
   2   -100.6605433  0.389563E-04  0.396E-02    0.20       1.0  T
   3   -100.6590634  0.147995E-02  0.123E-01    0.29       1.0  T
   4   -100.6605594 -0.149604E-02  0.183E-02    0.20       1.0  T
   5   -100.6605853 -0.258479E-04  0.880E-03    0.22       1.3  T
   6   -100.6605930 -0.772039E-05  0.209E-03    0.21       5.6  T
   7   -100.6605933 -0.271563E-06  0.877E-04    0.21      13.4  T
   8   -100.6605933 -0.316500E-07  0.302E-04    0.21      39.0  T
     SCC iter.                  ...        0 min,  0.065 sec
     gradient                   ...        0 min,  0.069 sec
 * total energy  :   -99.2843155 Eh     change       -0.1394768E-03 Eh
   gradient norm :     0.0056252 Eh/α   predicted    -0.1168599E-03 ( -16.22%)
   displ. norm   :     0.4052015 α      lambda       -0.1718619E-03
   maximum displ.:     0.1925643 α      in ANC's #12, #6, #4, ...

........................................................................
.............................. CYCLE   40 ..............................
........................................................................

 iter      E             dE          RMSdq      gap      omega  full diag
   1   -100.6608023 -0.100661E+03  0.514E-02    0.21       0.0  T
   2   -100.6607968  0.553672E-05  0.317E-02    0.22       1.0  T
   3   -100.6604905  0.306251E-03  0.545E-02    0.17       1.0  T
   4   -100.6607021 -0.211545E-03  0.320E-02    0.23       1.0  T
   5   -100.6608045 -0.102461E-03  0.564E-03    0.21       2.1  T
   6   -100.6608075 -0.296914E-05  0.164E-03    0.21       7.2  T
   7   -100.6608076 -0.118934E-06  0.719E-04    0.21      16.4  T
   8   -100.6608076 -0.288382E-07  0.218E-04    0.21      54.0  T
     SCC iter.                  ...        0 min,  0.065 sec
     gradient                   ...        0 min,  0.070 sec
 * total energy  :   -99.2844220 Eh     change       -0.1064713E-03 Eh
   gradient norm :     0.0076193 Eh/α   predicted    -0.1000419E-03 (  -6.04%)
   displ. norm   :     0.3869448 α      lambda       -0.1805168E-03
   maximum displ.:     0.1806591 α      in ANC's #4, #6, #12, ...

........................................................................
.............................. CYCLE   41 ..............................
........................................................................

 iter      E             dE          RMSdq      gap      omega  full diag
   1   -100.6612362 -0.100661E+03  0.500E-02    0.21       0.0  T
   2   -100.6612339  0.238330E-05  0.304E-02    0.22       1.0  T
   3   -100.6610353  0.198591E-03  0.442E-02    0.18       1.0  T
   4   -100.6611617 -0.126396E-03  0.277E-02    0.23       1.0  T
   5   -100.6612349 -0.732354E-04  0.814E-03    0.21       1.4  T
   6   -100.6612416 -0.670556E-05  0.171E-03    0.22       6.9  T
   7   -100.6612418 -0.205310E-06  0.654E-04    0.22      18.0  T
   8   -100.6612418 -0.665054E-08  0.250E-04    0.22      47.2  T
     SCC iter.                  ...        0 min,  0.065 sec
     gradient                   ...        0 min,  0.069 sec
 * total energy  :   -99.2845373 Eh     change       -0.1152865E-03 Eh
   gradient norm :     0.0059040 Eh/α   predicted    -0.1037782E-03 (  -9.98%)
   displ. norm   :     0.3393231 α      lambda       -0.1389446E-03
   maximum displ.:     0.1707653 α      in ANC's #4, #6, #12, ...

........................................................................
.............................. CYCLE   42 ..............................
........................................................................

 iter      E             dE          RMSdq      gap      omega  full diag
   1   -100.6597494 -0.100660E+03  0.455E-02    0.22       0.0  T
   2   -100.6597485  0.967269E-06  0.270E-02    0.22       1.0  T
   3   -100.6596054  0.143040E-03  0.375E-02    0.22       1.0  T
   4   -100.6597059 -0.100457E-03  0.209E-02    0.20       1.0  T
   5   -100.6597492 -0.433779E-04  0.606E-03    0.22       1.9  T
   6   -100.6597527 -0.346888E-05  0.138E-03    0.22       8.5  T
   7   -100.6597528 -0.822421E-07  0.524E-04    0.22      22.5  T
   8   -100.6597528 -0.841239E-08  0.165E-04    0.22      71.5  T
     SCC iter.                  ...        0 min,  0.065 sec
     gradient                   ...        0 min,  0.069 sec
 * total energy  :   -99.2846296 Eh     change       -0.9233346E-04 Eh
   gradient norm :     0.0046832 Eh/α   predicted    -0.7747547E-04 ( -16.09%)
   displ. norm   :     0.2727457 α      lambda       -0.1291218E-03
   maximum displ.:     0.1359564 α      in ANC's #4, #13, #6, ...
 * RMSD in coord.:     0.7729906 α      energy gain  -0.1216876E-01 Eh

generating ANC from model Hessian ...
Using Lindh-Hessian (1995)
 Shifting diagonal of input Hessian by    1.0056210262897965E-002
 Lowest  eigenvalues of input Hessian
    0.010000    0.000000    0.000000    0.000000    0.000000    0.000000
    0.000000    0.010098    0.010111    0.010165    0.010226    0.010359
    0.010439    0.010488    0.010649    0.010738    0.010807    0.010926
 Highest eigenvalues
    1.985013    1.987144    2.048053    2.078564    2.171107    2.183439


........................................................................
.............................. CYCLE   43 ..............................
........................................................................

 iter      E             dE          RMSdq      gap      omega  full diag
   1   -100.6618578 -0.100662E+03  0.350E-02    0.22       0.0  T
   2   -100.6618462  0.115838E-04  0.230E-02    0.21       1.0  T
   3   -100.6613012  0.545033E-03  0.738E-02    0.26       1.0  T
   4   -100.6618533 -0.552119E-03  0.864E-03    0.21       1.4  T
   5   -100.6618587 -0.539750E-05  0.441E-03    0.22       2.7  T
   6   -100.6618606 -0.189676E-05  0.124E-03    0.22       9.5  T
   7   -100.6618607 -0.986265E-07  0.526E-04    0.22      22.4  T
   8   -100.6618607 -0.106792E-07  0.154E-04    0.22      76.7  T
     SCC iter.                  ...        0 min,  0.065 sec
     gradient                   ...        0 min,  0.075 sec
 * total energy  :   -99.2847013 Eh     change       -0.7168185E-04 Eh
   gradient norm :     0.0048335 Eh/α   predicted     0.0000000E+00 (-100.00%)
   displ. norm   :     0.0552692 α      lambda       -0.7840982E-04
   maximum displ.:     0.0262756 α      in ANC's #8, #4, #14, ...

........................................................................
.............................. CYCLE   44 ..............................
........................................................................

 iter      E             dE          RMSdq      gap      omega  full diag
   1   -100.6612061 -0.100661E+03  0.179E-02    0.22       0.0  T
   2   -100.6611177  0.884036E-04  0.308E-02    0.20       1.0  T
   3   -100.6611810 -0.632926E-04  0.191E-02    0.23       1.0  T
   4   -100.6612084 -0.273673E-04  0.471E-03    0.22       2.5  T
   5   -100.6612101 -0.169166E-05  0.211E-03    0.22       5.6  T
   6   -100.6612106 -0.471235E-06  0.549E-04    0.22      21.5  T
   7   -100.6612106 -0.142942E-07  0.312E-04    0.22      37.7  T
     SCC iter.                  ...        0 min,  0.058 sec
     gradient                   ...        0 min,  0.069 sec
 * total energy  :   -99.2847526 Eh     change       -0.5123604E-04 Eh
   gradient norm :     0.0019823 Eh/α   predicted    -0.3949569E-04 ( -22.91%)
   displ. norm   :     0.1175858 α      lambda       -0.5383670E-04
   maximum displ.:     0.0460397 α      in ANC's #4, #13, #27, ...

........................................................................
.............................. CYCLE   45 ..............................
........................................................................

 iter      E             dE          RMSdq      gap      omega  full diag
   1   -100.6602861 -0.100660E+03  0.301E-02    0.21       0.0  T
   2   -100.6602097  0.764004E-04  0.339E-02    0.24       1.0  T
   3   -100.6601470  0.627001E-04  0.385E-02    0.19       1.0  T
   4   -100.6602552 -0.108187E-03  0.184E-02    0.21       1.0  T
   5   -100.6602908 -0.355596E-04  0.200E-03    0.22       5.9  T
   6   -100.6602912 -0.406236E-06  0.625E-04    0.22      18.8  T
   7   -100.6602912 -0.166852E-07  0.374E-04    0.22      31.5  T
     SCC iter.                  ...        0 min,  0.058 sec
     gradient                   ...        0 min,  0.069 sec
 * total energy  :   -99.2847971 Eh     change       -0.4454415E-04 Eh
   gradient norm :     0.0033398 Eh/α   predicted    -0.2708441E-04 ( -39.20%)
   displ. norm   :     0.0795168 α      lambda       -0.3724534E-04
   maximum displ.:     0.0354437 α      in ANC's #4, #5, #13, ...

   *** GEOMETRY OPTIMIZATION CONVERGED AFTER 45 ITERATIONS ***

------------------------------------------------------------------------
 total energy gain   :        -0.9736685 Eh     -610.9862 kcal/mol
 total RMSD          :         1.1777520 a0        0.6232 Å
 total power (kW/mol):       -56.8081417 (step) -339.5301 (real)
------------------------------------------------------------------------

 ANCopt (total)                0 d,  0 h,  0 min,  7.529 sec
 optimizer setup                ...        0 min,  0.000 sec (  0.004%)
 model hessian                  ...        0 min,  0.150 sec (  1.998%)
 ANC generation                 ...        0 min,  0.020 sec (  0.261%)
 coordinate transformation      ...        0 min,  0.003 sec (  0.041%)
 single point calculation       ...        0 min,  7.299 sec ( 96.949%)
 optimization log               ...        0 min,  0.011 sec (  0.151%)
 hessian update                 ...        0 min,  0.003 sec (  0.037%)
 rational function              ...        0 min,  0.025 sec (  0.326%)

================
 final structure:
================
72
 xtb: 6.6.1 (8d0f1dd)
N           -1.63470851308519        1.61915219609293        2.38547407903442
C           -1.70580345407988        1.98196154089279        1.17331354187428
C           -2.87023392261069        1.78623635024458        0.31404844826032
C           -3.86092638518864        0.53396877630864        0.58163846352933
C           -4.42515976509083       -0.11684875740933       -0.59113325438034
C           -4.58339511658674       -1.47093540615193       -0.67451762575678
O           -5.09971010123027       -2.13510872942693       -1.73351385634122
C           -5.58509529551303       -1.39915284631601       -2.83207459378548
C           -4.20919889857953       -2.30869158640859        0.42465981378521
O           -4.41069842345836       -3.62312663642490        0.24628810098076
C           -4.20947279273091       -4.50847484192520        1.32524585947304
C           -3.70504073903013       -1.70475565813888        1.58249491433560
C           -3.54244128268727       -0.35103671467244        1.67894738277929
C           -2.59402282104306        2.13479673106230       -1.13608263535740
C           -1.69658149303803        1.08350273666173       -1.83114477473089
C           -0.31105626585513        1.09957110836805       -1.31722673424471
N            0.28259330237792        0.12102026521889       -0.64257930742103
C            1.67499778627345        0.24064755543956       -0.28074957527140
C            2.60575176725786       -0.37169826607397       -1.34625080872919
C            4.03982470100161       -0.17098789362142       -0.94286825180714
C            4.67769705536099        1.03358285743849       -1.19062528433344
C            5.98579236041482        1.24228722067634       -0.78157699206255
C            6.68389867317301        0.24686254324683       -0.11370578303029
O            7.95104941010137        0.33993605200384        0.33372558746687
C            8.66405741143771        1.53823624699018        0.13231781895599
C            6.04112616715040       -0.99601251274512        0.13706067094756
O            6.79521046792540       -1.91240504661674        0.77831550686013
C            6.25849352491536       -3.18822353789041        1.03277188181416
C            4.73060135953202       -1.17887770532831       -0.27473822805973
C           -0.38676173781025       -1.12306874863152       -0.34728525124649
C           -4.26142035226515        1.98172340311081        0.84975260928482
C           -4.52581192814990        2.47837797672310        2.24237374861697
C           -3.26412205165796        5.81618433224700        0.31878788091007
H           -4.77692006375067        0.50869324531048       -1.39384692284510
H           -6.39479338213943       -0.72484807016178       -2.53794684423555
H           -5.97287861540221       -2.13814156750465       -3.53038657063958
H           -4.78832590471673       -0.82608171604573       -3.32018112698913
H           -4.85507051230581       -4.25639010726951        2.17299412230718
H           -4.47700868530242       -5.49428190061456        0.94649836109441
H           -3.16348574752590       -4.51528132908342        1.65062218730274
H           -3.45661594178499       -2.31689142670828        2.43424919594574
H           -3.14944101283820        0.07988109377642        2.58155004818830
H           -3.52364841654312        2.22439884868353       -1.69466190890051
H           -2.10465649094193        3.11095734565326       -1.17561469397411
H           -2.15642142607405        0.10251024008336       -1.72019565968316
H           -1.66754321476947        1.33578143742207       -2.89647959964830
H           -0.88199612088654        2.49684849355277        0.65857401312840
H            0.28492085309719        1.97765331995346       -1.51152592485994
H            1.83909720553928       -0.25899425803140        0.67665816447884
H            1.92774299912216        1.29633885394577       -0.16031983019959
H            2.41357592022157        0.12016315468357       -2.30157911868873
H            2.38768704469474       -1.43459810179497       -1.45535996809641
H            4.16042625287889        1.82113071979089       -1.71755035818201
H            6.45664854063054        2.18820620947086       -0.99333548659533
H            8.17315068697066        2.38405472325476        0.62354135600006
H            8.78965728866528        1.75605720287241       -0.93258582777390
H            9.64059604772230        1.37602907282917        0.58461129413758
H            7.05300823036751       -3.74661365975546        1.52394367000463
H            5.39097815101155       -3.13395721166843        1.69851499843284
H            5.97799421927675       -3.69781201756259        0.10563351294839
H            4.23424266146283       -2.11859874773171       -0.08964120035078
H           -0.67466633121660       -1.64595067909812       -1.26253895728472
H           -1.28313570785719       -0.94365610776809        0.25208349998456
H            0.28324976935000       -1.76517920584070        0.21821692175491
H           -4.96289892372610        2.37568623656903        0.12153808454915
H           -3.70391594015910        2.24010222904655        2.90872210835020
H           -5.43854486448414        2.03305430022926        2.63195456383659
H           -4.65555788451242        3.55812902611111        2.21802232193461
H           -2.68289711110964        5.21493669445991        0.98378022894698
H           -2.89086287015942        6.06305634586360       -0.65248273301266
H           -4.18125278650075        6.24518456979326        0.65641187404951
H           -0.77335496655882        1.85391926082286        2.86823369484131

 Bond Distances (Angstroems)
 ---------------------------
N1-C2=1.2673         N1-H72=1.0149        C2-N1=1.2673         C2-C3=1.4603         C2-H47=1.0994        C3-C2=1.4603         
C3-C4=1.6190         C3-C14=1.5168        C3-C31=1.5035        C4-C3=1.6190         C4-C5=1.4551         C4-C13=1.4453        
C4-C31=1.5259        C5-C4=1.4551         C5-C6=1.3658         C5-H34=1.0767        C6-C5=1.3658         C6-O7=1.3525         
C6-C9=1.4318         O7-C6=1.3525         O7-C8=1.4086         C8-O7=1.4086         C8-H35=1.0940        C8-H36=1.0882        
C8-H37=1.0961        C9-C6=1.4318         C9-O10=1.3417        C9-C12=1.3998        O10-C9=1.3417        O10-C11=1.4101       
C11-O10=1.4101       C11-H38=1.0950       C11-H39=1.0894       C11-H40=1.0954       C12-C9=1.3998        C12-C13=1.3669       
C12-H41=1.0779       C13-C4=1.4453        C13-C12=1.3669       C13-H42=1.0746       C14-C3=1.5168        C14-C15=1.5472       
C14-H43=1.0882       C14-H44=1.0927       C15-C14=1.5472       C15-C16=1.4779       C15-H45=1.0891       C15-H46=1.0952       
C16-C15=1.4779       C16-N17=1.3286       C16-H48=1.0789       N17-C16=1.3286       N17-C18=1.4436       N17-C30=1.4433       
C18-N17=1.4436       C18-C19=1.5416       C18-H49=1.0923       C18-H50=1.0922       C19-C18=1.5416       C19-C20=1.5032       
C19-H51=1.0916       C19-H52=1.0905       C20-C19=1.5032       C20-C21=1.3854       C20-C29=1.3926       C21-C20=1.3854       
C21-C22=1.3864       C21-H53=1.0796       C22-C21=1.3864       C22-C23=1.3872       C22-H54=1.0776       C23-C22=1.3872       
C23-O24=1.3470       C23-C26=1.4215       O24-C23=1.3470       O24-C25=1.4089       C25-O24=1.4089       C25-H55=1.0944       
[...]
         :: -> isotropic ES            0.110539914038 Eh    ::
         :: -> anisotropic ES          0.003357406347 Eh    ::
         :: -> anisotropic XC          0.046071333419 Eh    ::
         :: -> dispersion             -0.073088756509 Eh    ::
         :: repulsion energy           1.374014095045 Eh    ::
         :: add. restraining           0.000001159389 Eh    ::
         :: total charge               1.000000000000 e     ::
         :::::::::::::::::::::::::::::::::::::::::::::::::::::

           -------------------------------------------------
          |                Property Printout                |
           -------------------------------------------------

    * Orbital Energies and Occupations

         #    Occupation            Energy/Eh            Energy/eV
      -------------------------------------------------------------
         1        2.0000           -0.8167114             -22.2238
       ...           ...                  ...                  ...
        78        1.9994           -0.5382062             -14.6453
        79        1.9993           -0.5355551             -14.5732
        80        1.9989           -0.5281922             -14.3728
        81        1.9985           -0.5239529             -14.2575
        82        1.9984           -0.5227479             -14.2247
        83        1.9975           -0.5153040             -14.0221
        84        1.9964           -0.5095725             -13.8662
        85        1.9956           -0.5062816             -13.7766
        86        1.9813           -0.4834650             -13.1558
        87        1.9730           -0.4775665             -12.9952
        88        1.9654           -0.4735486             -12.8859
        89        1.8630           -0.4509277             -12.2704
        90        0.9946           -0.4094292             -11.1411 (HOMO)
        91        0.7492           -0.4014845             -10.9249 (LUMO)
        92        0.4655           -0.3907132             -10.6318
        93        0.0176           -0.3347683              -9.1095
        94        0.0049           -0.3145506              -8.5594
        95        0.0031           -0.3071245              -8.3573
        96        0.0027           -0.3050359              -8.3005
        97        0.0000           -0.2381546              -6.4805
        98        0.0000           -0.1823134              -4.9610
        99                         -0.1409297              -3.8349
       100                         -0.1294259              -3.5219
       101                         -0.0746433              -2.0311
       ...                                ...                  ...
       171                          0.5814155              15.8211
      -------------------------------------------------------------
                  HL-Gap            0.0079447 Eh            0.2162 eV
             Fermi-level           -0.4096011 Eh          -11.1458 eV

     #   Z          covCN         q      C6AA      α(0)
     1   7 N        1.775    -0.320    29.106     7.989
     2   6 C        2.819     0.083    26.132     8.376
     3   6 C        3.899     0.008    20.391     6.419
     4   6 C        3.907     0.029    20.034     6.362
     5   6 C        2.909    -0.092    30.301     9.026
     6   6 C        2.853     0.128    25.192     8.226
     7   8 O        1.706    -0.240    17.985     5.726
     8   6 C        3.644     0.028    20.443     6.499
     9   6 C        2.862     0.127    25.216     8.231
    10   8 O        1.706    -0.214    17.549     5.656
    11   6 C        3.645     0.023    20.528     6.512
    12   6 C        2.905    -0.071    29.765     8.946
    13   6 C        2.909    -0.050    29.233     8.866
    14   6 C        3.807    -0.065    21.742     6.638
    15   6 C        3.803    -0.068    21.802     6.648
    16   6 C        2.846    -0.001    28.053     8.680
    17   7 N        2.729     0.014    21.015     6.809
    18   6 C        3.757    -0.017    20.930     6.523
    19   6 C        3.807    -0.070    21.832     6.651
    20   6 C        2.969    -0.001    28.054     8.688
    21   6 C        2.922    -0.050    29.240     8.868
    22   6 C        2.914    -0.068    29.698     8.936
    23   6 C        2.865     0.132    25.103     8.213
    24   8 O        1.706    -0.225    17.730     5.685
    25   6 C        3.645     0.026    20.472     6.503
    26   6 C        2.863     0.132    25.107     8.213
    27   8 O        1.706    -0.227    17.770     5.691
    28   6 C        3.645     0.028    20.440     6.498
    29   6 C        2.920    -0.080    29.992     8.981
    30   6 C        3.699    -0.069    21.991     6.707
    31   6 C        3.858    -0.003    20.592     6.454
    32   6 C        3.752    -0.121    22.875     6.820
    33   6 C        2.780    -0.152    31.888     9.249
    34   1 H        0.926     0.050     2.319     2.381
    35   1 H        0.924     0.052     2.295     2.369
    36   1 H        0.925     0.081     1.971     2.195
    37   1 H        0.924     0.043     2.413     2.429
    38   1 H        0.924     0.061     2.190     2.314
    39   1 H        0.925     0.084     1.936     2.176
    40   1 H        0.924     0.053     2.282     2.363
    41   1 H        0.926     0.060     2.204     2.322
    42   1 H        0.926     0.092     1.860     2.133
    43   1 H        0.925     0.057     2.234     2.338
    44   1 H        0.924     0.059     2.206     2.323
    45   1 H        0.925     0.063     2.168     2.303
    46   1 H        0.924     0.074     2.047     2.237
    47   1 H        0.923     0.004     2.993     2.705
    48   1 H        0.926     0.065     2.139     2.287
    49   1 H        0.924     0.068     2.110     2.272
    50   1 H        0.924     0.067     2.116     2.275
    51   1 H        0.924     0.055     2.260     2.351
    52   1 H        0.924     0.054     2.274     2.358
    53   1 H        0.926     0.043     2.415     2.430
    54   1 H        0.926     0.057     2.237     2.339
    55   1 H        0.924     0.052     2.289     2.366
    56   1 H        0.924     0.055     2.264     2.353
    57   1 H        0.925     0.081     1.970     2.195
    58   1 H        0.925     0.080     1.974     2.197
    59   1 H        0.924     0.048     2.351     2.398
    60   1 H        0.924     0.051     2.303     2.373
    61   1 H        0.926     0.046     2.364     2.404
    62   1 H        0.924     0.075     2.033     2.230
    63   1 H        0.924     0.078     1.997     2.210
    64   1 H        0.925     0.079     1.991     2.206
    65   1 H        0.925     0.054     2.272     2.357
    66   1 H        0.925     0.078     1.997     2.210
    67   1 H        0.925     0.061     2.183     2.311
    68   1 H        0.925     0.061     2.193     2.316
    69   1 H        0.927     0.047     2.354     2.399
    70   1 H        0.927     0.052     2.291     2.367
    71   1 H        0.927     0.058     2.219     2.329
    72   1 H        0.860     0.148     1.418     1.865

 Mol. C6AA /au·bohr⁶  :      47406.386128
 Mol. C8AA /au·bohr⁸  :    1081938.046142
 Mol. α(0) /au        :        334.273910


Wiberg/Mayer (AO) data.
largest (>0.10) Wiberg bond orders for each atom

 ---------------------------------------------------------------------------
     #   Z sym  total        # sym  WBO       # sym  WBO       # sym  WBO
 ---------------------------------------------------------------------------
     1   7 N    2.956 --     2 C    1.830    72 H    0.949
     2   6 C    3.923 --     1 N    1.830     3 C    1.092    47 H    0.929
     3   6 C    3.839 --     2 C    1.092    14 C    1.001    31 C    0.921
                             4 C    0.700
     4   6 C    3.937 --    13 C    1.137     5 C    1.113    31 C    0.853
                             3 C    0.700
     5   6 C    3.822 --     6 C    1.519     4 C    1.113    34 H    0.958
     6   6 C    3.930 --     5 C    1.519     9 C    1.169     7 O    1.086
     7   8 O    2.253 --     6 C    1.086     8 C    0.979
     8   6 C    3.935 --     7 O    0.979    36 H    0.977    37 H    0.975
                            35 H    0.974
     9   6 C    3.728 --    12 C    1.304     6 C    1.169    10 O    1.126
    10   8 O    2.243 --     9 C    1.126    11 C    0.973
    11   6 C    3.928 --    39 H    0.977    10 O    0.973    40 H    0.973
                            38 H    0.973
    12   6 C    3.977 --    13 C    1.547     9 C    1.304    41 H    0.961
    13   6 C    3.771 --    12 C    1.547     4 C    1.137    42 H    0.951
    14   6 C    3.961 --     3 C    1.001    43 H    0.969    44 H    0.965
                            15 C    0.962
    15   6 C    3.987 --    16 C    1.061    45 H    0.964    14 C    0.962
                            46 H    0.944
    16   6 C    3.541 --    17 N    1.397    15 C    1.061    48 H    0.959
    17   7 N    3.458 --    16 C    1.397    30 C    0.999    18 C    0.989
    18   6 C    3.956 --    17 N    0.989    50 H    0.967    19 C    0.966
                            49 H    0.965
    19   6 C    3.975 --    20 C    1.008    52 H    0.973    51 H    0.970
                            18 C    0.966
    20   6 C    3.949 --    21 C    1.411    29 C    1.380    19 C    1.008
    21   6 C    3.953 --    22 C    1.416    20 C    1.411    53 H    0.968
    22   6 C    3.962 --    21 C    1.416    23 C    1.385    54 H    0.963
    23   6 C    3.899 --    22 C    1.385    26 C    1.224    24 O    1.106
    24   8 O    2.255 --    23 C    1.106    25 C    0.977
    25   6 C    3.930 --    57 H    0.977    24 O    0.977    55 H    0.973
                            56 H    0.973
    26   6 C    3.903 --    29 C    1.396    23 C    1.224    27 O    1.100
    27   8 O    2.254 --    26 C    1.100    28 C    0.979
    28   6 C    3.933 --    27 O    0.979    58 H    0.977    59 H    0.974
                            60 H    0.974
    29   6 C    3.961 --    26 C    1.396    20 C    1.380    61 H    0.962
    30   6 C    3.959 --    17 N    0.999    64 H    0.978    62 H    0.966
                            63 H    0.963
    31   6 C    3.863 --    32 C    1.025    65 H    0.961     3 C    0.921
                             4 C    0.853
    32   6 C    3.979 --    31 C    1.025    68 H    0.974    67 H    0.973
                            66 H    0.967
    33   6 C    2.985 --    70 H    0.995    69 H    0.995    71 H    0.994
    34   1 H    0.996 --     5 C    0.958
    35   1 H    0.996 --     8 C    0.974
    36   1 H    0.993 --     8 C    0.977
    37   1 H    0.997 --     8 C    0.975
    38   1 H    0.990 --    11 C    0.973
    39   1 H    0.992 --    11 C    0.977
    40   1 H    0.991 --    11 C    0.973
    41   1 H    0.995 --    12 C    0.961
    42   1 H    0.991 --    13 C    0.951
    43   1 H    0.995 --    14 C    0.969
    44   1 H    0.990 --    14 C    0.965
    45   1 H    0.996 --    15 C    0.964
    46   1 H    0.976 --    15 C    0.944
    47   1 H    0.988 --     2 C    0.929
    48   1 H    0.996 --    16 C    0.959
    49   1 H    0.991 --    18 C    0.965
    50   1 H    0.993 --    18 C    0.967
    51   1 H    0.995 --    19 C    0.970
    52   1 H    0.996 --    19 C    0.973
    53   1 H    0.998 --    21 C    0.968
    54   1 H    0.995 --    22 C    0.963
    55   1 H    0.993 --    25 C    0.973
    56   1 H    0.992 --    25 C    0.973
    57   1 H    0.993 --    25 C    0.977
    58   1 H    0.993 --    28 C    0.977
    59   1 H    0.994 --    28 C    0.974
    60   1 H    0.993 --    28 C    0.974
    61   1 H    0.997 --    29 C    0.962
    62   1 H    0.985 --    30 C    0.966
    63   1 H    0.985 --    30 C    0.963
    64   1 H    0.994 --    30 C    0.978
    65   1 H    0.995 --    31 C    0.961
    66   1 H    0.993 --    32 C    0.967
    67   1 H    0.992 --    32 C    0.973
    68   1 H    0.990 --    32 C    0.974
    69   1 H    0.997 --    33 C    0.995
    70   1 H    0.997 --    33 C    0.995
    71   1 H    0.996 --    33 C    0.994
    72   1 H    0.975 --     1 N    0.949
 ---------------------------------------------------------------------------

Topologies differ in total number of bonds
Writing topology from bond orders to xtbtopo.mol

molecular dipole:
                 x           y           z       tot (Debye)
 q only:       -0.478      -0.182      -0.457
   full:       -0.314       0.228      -0.749       2.143
molecular quadrupole (traceless):
                xx          xy          yy          xz          yz          zz
 q only:       46.501       5.007     -12.700       0.821     -11.541     -33.800
  q+dip:       41.220       5.564      -8.024       3.464     -14.690     -33.197
   full:       41.292       5.231      -8.358       1.763     -13.340     -32.934

           -------------------------------------------------
          |                Geometry Summary                 |
           -------------------------------------------------

      molecular mass/u    :      455.6105846
   center of mass at/Å    :       -0.0031117      -0.0608085      -0.0106359
  moments of inertia/u·Å² :        0.2718737E+04   0.1026875E+05   0.1158189E+05
rotational constants/cm⁻¹ :        0.6200538E-02   0.1641644E-02   0.1455516E-02

 * 69 selected distances

     #   Z          #   Z                                           value/Å
     1   7 N        2   6 C                                       1.2672879
     2   6 C        3   6 C                                       1.4603231
     4   6 C        5   6 C                                       1.4551002
     5   6 C        6   6 C                                       1.3658486
     6   6 C        7   8 O                                       1.3524721
     7   8 O        8   6 C                                       1.4085687
     6   6 C        9   6 C                                       1.4317994
     9   6 C       10   8 O                                       1.3416998
    10   8 O       11   6 C                                       1.4101360
     9   6 C       12   6 C                                       1.3998202
     4   6 C       13   6 C                                       1.4452525
    12   6 C       13   6 C                                       1.3668566
     3   6 C       14   6 C                                       1.5167951
    15   6 C       16   6 C                                       1.4778533
    16   6 C       17   7 N                                       1.3285823
    17   7 N       18   6 C                                       1.4436142
    18   6 C       19   6 C                                       1.5416107 (max)
    20   6 C       21   6 C                                       1.3853721
    21   6 C       22   6 C                                       1.3863592
    22   6 C       23   6 C                                       1.3871824
    23   6 C       24   8 O                                       1.3470445
    24   8 O       25   6 C                                       1.4088539
    23   6 C       26   6 C                                       1.4215411
    26   6 C       27   8 O                                       1.3489353
    27   8 O       28   6 C                                       1.4073117
    20   6 C       29   6 C                                       1.3926279
    26   6 C       29   6 C                                       1.3858188
    17   7 N       30   6 C                                       1.4432576
     3   6 C       31   6 C                                       1.5035273
     4   6 C       31   6 C                                       1.5258684
    31   6 C       32   6 C                                       1.5019863
     5   6 C       34   1 H                                       1.0767486
     8   6 C       35   1 H                                       1.0939878
     8   6 C       36   1 H                                       1.0881728
     8   6 C       37   1 H                                       1.0961296
    11   6 C       38   1 H                                       1.0949979
    11   6 C       39   1 H                                       1.0894223
    11   6 C       40   1 H                                       1.0954475
    12   6 C       41   1 H                                       1.0779196
    13   6 C       42   1 H                                       1.0746307
    14   6 C       43   1 H                                       1.0882294
    14   6 C       44   1 H                                       1.0926719
    15   6 C       45   1 H                                       1.0890863
    15   6 C       46   1 H                                       1.0951832
     2   6 C       47   1 H                                       1.0994199
    16   6 C       48   1 H                                       1.0788742
    18   6 C       49   1 H                                       1.0923371
    18   6 C       50   1 H                                       1.0921849
    19   6 C       51   1 H                                       1.0915638
    19   6 C       52   1 H                                       1.0905106
    21   6 C       53   1 H                                       1.0795605
    22   6 C       54   1 H                                       1.0776410
    25   6 C       55   1 H                                       1.0943944
    25   6 C       56   1 H                                       1.0941852
    25   6 C       57   1 H                                       1.0883513
    28   6 C       58   1 H                                       1.0882569
    28   6 C       59   1 H                                       1.0948707
    28   6 C       60   1 H                                       1.0945072
    29   6 C       61   1 H                                       1.0787533
    30   6 C       62   1 H                                       1.0926958
    30   6 C       63   1 H                                       1.0931232
    30   6 C       64   1 H                                       1.0867448
    31   6 C       65   1 H                                       1.0851615
    32   6 C       66   1 H                                       1.0845777
    32   6 C       67   1 H                                       1.0877353
    32   6 C       68   1 H                                       1.0877911
    33   6 C       69   1 H                                       1.0684270
    33   6 C       70   1 H                                       1.0694087
    33   6 C       71   1 H                                       1.0673145 (min)

 * 4 distinct bonds (by element types)

   Z      Z             #   av. dist./Å        max./Å        min./Å
   1 H    6 C          38     1.0871321     1.0994199     1.0673145
   6 C    6 C          19     1.4395549     1.5416107     1.3658486
   6 C    7 N           4     1.3706855     1.4436142     1.2672879
   6 C    8 O           8     1.3781277     1.4101360     1.3416998


optimized geometry written to: xtbopt.xyz


           -------------------------------------------------
          | TOTAL ENERGY              -99.284797101504 Eh   |
          | GRADIENT NORM               0.003338764481 Eh/α |
          | HOMO-LUMO GAP               0.216185855150 eV   |
           -------------------------------------------------

------------------------------------------------------------------------
 * finished run on 2024/04/06 at 11:14:48.046     
------------------------------------------------------------------------
 total:
 * wall-time:     0 d,  0 h,  0 min,  7.884 sec
 *  cpu-time:     0 d,  0 h,  0 min,  7.862 sec
 * ratio c/w:     0.997 speedup
 SCF:
 * wall-time:     0 d,  0 h,  0 min,  0.190 sec
 *  cpu-time:     0 d,  0 h,  0 min,  0.190 sec
 * ratio c/w:     0.998 speedup
 ANC optimizer:
 * wall-time:     0 d,  0 h,  0 min,  7.652 sec
 *  cpu-time:     0 d,  0 h,  0 min,  7.648 sec
 * ratio c/w:     0.999 speedup

