      -----------------------------------------------------------      
     |                   =====================                   |     
     |                           x T B                           |     
     |                   =====================                   |     
     |                         S. Grimme                         |     
     |          Mulliken Center for Theoretical Chemistry        |     
     |                    University of Bonn                     |     
      -----------------------------------------------------------      

   * xtb version 6.6.1 (8d0f1dd) compiled by 'conda@1efc2f54142f' on 2023-08-01

   xtb is free software: you can redistribute it and/or modify it under
   the terms of the GNU Lesser General Public License as published by
   the Free Software Foundation, either version 3 of the License, or
   (at your option) any later version.
   
   xtb is distributed in the hope that it will be useful,
   but WITHOUT ANY WARRANTY; without even the implied warranty of
   MERCHANTABILITY or FITNESS FOR A PARTICULAR PURPOSE.  See the
   GNU Lesser General Public License for more details.
   
   Cite this work as:
   * C. Bannwarth, E. Caldeweyher, S. Ehlert, A. Hansen, P. Pracht,
     J. Seibert, S. Spicher, S. Grimme, WIREs Comput. Mol. Sci., 2020, 11,
     e01493. DOI: 10.1002/wcms.1493
   
   for GFN2-xTB:
   * C. Bannwarth, S. Ehlert and S. Grimme., J. Chem. Theory Comput., 2019,
     15, 1652-1671. DOI: 10.1021/acs.jctc.8b01176
   for GFN1-xTB:
   * S. Grimme, C. Bannwarth, P. Shushkov, J. Chem. Theory Comput., 2017,
     13, 1989-2009. DOI: 10.1021/acs.jctc.7b00118
   for GFN0-xTB:
   * P. Pracht, E. Caldeweyher, S. Ehlert, S. Grimme, ChemRxiv, 2019, preprint.
     DOI: 10.26434/chemrxiv.8326202.v1
   for GFN-FF:
   * S. Spicher and S. Grimme, Angew. Chem. Int. Ed., 2020, 59, 15665-15673.
     DOI: 10.1002/anie.202004239
   
   for ALPB and GBSA implicit solvation:
   * S. Ehlert, M. Stahn, S. Spicher, S. Grimme, J. Chem. Theory Comput.,
     2021, 17, 4250-4261. DOI: 10.1021/acs.jctc.1c00471
   
   for DFT-D4:
   * E. Caldeweyher, C. Bannwarth and S. Grimme, J. Chem. Phys., 2017,
     147, 034112. DOI: 10.1063/1.4993215
   * E. Caldeweyher, S. Ehlert, A. Hansen, H. Neugebauer, S. Spicher,
     C. Bannwarth and S. Grimme, J. Chem. Phys., 2019, 150, 154122.
     DOI: 10.1063/1.5090222
   * E. Caldeweyher, J.-M. Mewes, S. Ehlert and S. Grimme, Phys. Chem. Chem. Phys.
     2020, 22, 8499-8512. DOI: 10.1039/D0CP00502A
   
   for sTDA-xTB:
   * S. Grimme and C. Bannwarth, J. Chem. Phys., 2016, 145, 054103.
     DOI: 10.1063/1.4959605
   
   in the mass-spec context:
   * V. Asgeirsson, C. Bauer and S. Grimme, Chem. Sci., 2017, 8, 4879.
     DOI: 10.1039/c7sc00601b
   * J. Koopman and S. Grimme, ACS Omega 2019, 4, 12, 15120-15133.
     DOI: 10.1021/acsomega.9b02011
   
   for metadynamics refer to:
   * S. Grimme, J. Chem. Theory Comput., 2019, 155, 2847-2862
     DOI: 10.1021/acs.jctc.9b00143
   
   for SPH calculations refer to:
   * S. Spicher and S. Grimme, J. Chem. Theory Comput., 2021, 17, 1701-1714
     DOI: 10.1021/acs.jctc.0c01306
   
   with help from (in alphabetical order)
   P. Atkinson, C. Bannwarth, F. Bohle, G. Brandenburg, E. Caldeweyher
   M. Checinski, S. Dohm, S. Ehlert, S. Ehrlich, I. Gerasimov, C. Hölzer
   A. Katbashev, J. Koopman, C. Lavigne, S. Lehtola, F. März, M. Müller,
   F. Musil, H. Neugebauer, J. Pisarek, C. Plett, P. Pracht, F. Pultar,
   J. Seibert, P. Shushkov, S. Spicher, M. Stahn, M. Steiner, T. Strunk,
   J. Stückrath, T. Rose, and J. Unsleber
   
 * started run on 2024/04/06 at 11:14:48.068     

           -------------------------------------------------
          |                Calculation Setup                |
           -------------------------------------------------

          program call               : xtb xtbopt.xyz --opt crude --input .xc2 --gfn2
          hostname                   : n-62-30-23
          coordinate file            : xtbopt.xyz
          omp threads                :                     1

   ID    Z sym.   atoms
    1    7 N      1, 17
    2    6 C      2-6, 8, 9, 11-16, 18-23, 25, 26, 28-33
    3    8 O      7, 10, 24, 27
    4    1 H      34-72

molecular fragmentation (1/2 indicates fragments):
111111111111111111111111111111112111111111111111111111111111111111112221
# atoms in fragment 1/2:    68     4
 fragment masses (1/2) :      440.58       15.03
CMA distance (Bohr)    :  13.157
constraining FC (au)   :  0.0500
########################################################################
[WARNING] Please study the warnings concerning your input carefully
-1- readin_getIntValue: could not parse ''
########################################################################

           -------------------------------------------------
          |                 G F N 2 - x T B                 |
           -------------------------------------------------

        Reference                      10.1021/acs.jctc.8b01176
      * Hamiltonian:
        H0-scaling (s, p, d)           1.850000    2.230000    2.230000
        zeta-weighting                 0.500000
      * Dispersion:
        s8                             2.700000
        a1                             0.520000
        a2                             5.000000
        s9                             5.000000
      * Repulsion:
        kExp                           1.500000    1.000000
        rExp                           1.000000
      * Coulomb:
        alpha                          2.000000
        third order                    shell-resolved
        anisotropic                    true
        a3                             3.000000
        a5                             4.000000
        cn-shift                       1.200000
        cn-exp                         4.000000
        max-rad                        5.000000

q/qsh data taken from xtbrestart
CAMM data taken from xtbrestart

          ...................................................
          :                      SETUP                      :
          :.................................................:
          :  # basis functions                 171          :
          :  # atomic orbitals                 171          :
          :  # shells                          105          :
          :  # electrons                       180          :
          :  max. iterations                   250          :
          :  Hamiltonian                  GFN2-xTB          :
          :  restarted?                       true          :
          :  GBSA solvation                  false          :
          :  PC potential                    false          :
          :  electronic temp.         5000.0000000     K    :
          :  accuracy                    1.0000000          :
          :  -> integral cutoff          0.2500000E+02      :
          :  -> integral neglect         0.1000000E-07      :
          :  -> SCF convergence          0.1000000E-05 Eh   :
          :  -> wf. convergence          0.1000000E-03 e    :
          :  Broyden damping             0.4000000          :
          ...................................................

 iter      E             dE          RMSdq      gap      omega  full diag
   1   -100.6602912 -0.100660E+03  0.407E-05    0.22       0.0  T
   2   -100.6602912  0.675456E-09  0.838E-05    0.22     140.7  T
   3   -100.6602912 -0.517204E-09  0.506E-05    0.22     233.1  T

   *** convergence criteria satisfied after 3 iterations ***

         #    Occupation            Energy/Eh            Energy/eV
      -------------------------------------------------------------
         1        2.0000           -0.8167112             -22.2238
       ...           ...                  ...                  ...
        84        1.9964           -0.5095719             -13.8662
        85        1.9956           -0.5062810             -13.7766
        86        1.9813           -0.4834652             -13.1558
        87        1.9730           -0.4775659             -12.9952
        88        1.9654           -0.4735483             -12.8859
        89        1.8630           -0.4509280             -12.2704
        90        0.9946           -0.4094305             -11.1412 (HOMO)
        91        0.7491           -0.4014837             -10.9249 (LUMO)
        92        0.4655           -0.3907123             -10.6318
        93        0.0176           -0.3347679              -9.1095
        94        0.0049           -0.3145498              -8.5593
        95        0.0031           -0.3071247              -8.3573
       ...           ...                  ...                  ...
       171                          0.5814153              15.8211
      -------------------------------------------------------------
                  HL-Gap            0.0079468 Eh            0.2162 eV
             Fermi-level           -0.4096011 Eh          -11.1458 eV

 SCC (total)                   0 d,  0 h,  0 min,  0.120 sec
 SCC setup                      ...        0 min,  0.001 sec (  0.961%)
 Dispersion                     ...        0 min,  0.002 sec (  1.668%)
 classical contributions        ...        0 min,  0.001 sec (  0.444%)
 integral evaluation            ...        0 min,  0.019 sec ( 15.672%)
 iterations                     ...        0 min,  0.028 sec ( 23.298%)
 molecular gradient             ...        0 min,  0.069 sec ( 57.413%)
 printout                       ...        0 min,  0.001 sec (  0.529%)

         :::::::::::::::::::::::::::::::::::::::::::::::::::::
         ::                     SUMMARY                     ::
         :::::::::::::::::::::::::::::::::::::::::::::::::::::
         :: total energy             -99.284798262482 Eh    ::
         :: gradient norm              0.003385598247 Eh/a0 ::
         :: HOMO-LUMO gap              0.216242496283 eV    ::
         ::.................................................::
         :: SCC energy              -100.660291201857 Eh    ::
         :: -> isotropic ES            0.110543118271 Eh    ::
         :: -> anisotropic ES          0.003356924939 Eh    ::
         :: -> anisotropic XC          0.046071273916 Eh    ::
         :: -> dispersion             -0.073088707847 Eh    ::
         :: repulsion energy           1.374014095045 Eh    ::
         :: add. restraining           0.000000000000 Eh    ::
         :: total charge               1.000000000000 e     ::
         :::::::::::::::::::::::::::::::::::::::::::::::::::::

      ----------------------------------------------------------- 
     |                   =====================                   |
     |                        A N C O P T                        |
     |                   =====================                   |
     |               Approximate Normal Coordinate               |
     |                Rational Function Optimizer                |
      ----------------------------------------------------------- 

          ...................................................
          :                      SETUP                      :
          :.................................................:
          :   optimization level             crude          :
          :   max. optcycles                   200          :
          :   ANC micro-cycles                  20          :
          :   degrees of freedom               210          :
          :.................................................:
          :   RF solver                   davidson          :
          :   write xtbopt.log                true          :
          :   linear?                        false          :
          :   energy convergence         0.5000000E-03 Eh   :
          :   grad. convergence          0.1000000E-01 Eh/α :
          :   maxmium RF displ.          1.0000000          :
          :   Hlow (freq-cutoff)         0.1000000E-01      :
          :   Hmax (freq-cutoff)         5.0000000          :
          :   S6 in model hess.         20.0000000          :
          ...................................................

generating ANC from model Hessian ...
Using Lindh-Hessian (1995)
 Shifting diagonal of input Hessian by    1.0047423119692733E-002
 Lowest  eigenvalues of input Hessian
    0.010000    0.000000    0.000000    0.000000    0.000000    0.000000
    0.000000    0.010091    0.010106    0.010154    0.010217    0.010350
    0.010430    0.010455    0.010617    0.010729    0.010770    0.010900
 Highest eigenvalues
    1.986884    1.987513    2.048054    2.073615    2.173688    2.183346


........................................................................
.............................. CYCLE    1 ..............................
........................................................................

 iter      E             dE          RMSdq      gap      omega  full diag
   1   -100.6602912 -0.100660E+03  0.207E-05    0.22       0.0  T
   2   -100.6602912  0.101892E-09  0.353E-05    0.22     334.2  T
   3   -100.6602912 -0.127741E-09  0.784E-06    0.22    1503.1  T
     SCC iter.                  ...        0 min,  0.026 sec
     gradient                   ...        0 min,  0.069 sec
 * total energy  :   -99.2847983 Eh     change       -0.2286811E-09 Eh
   gradient norm :     0.0033858 Eh/α   predicted     0.0000000E+00 (-100.00%)
   displ. norm   :     0.0623998 α      lambda       -0.6850167E-04
   maximum displ.:     0.0432099 α      in ANC's #16, #8, #13, ...

   *** GEOMETRY OPTIMIZATION CONVERGED AFTER 1 ITERATIONS ***

------------------------------------------------------------------------
 total energy gain   :        -0.0000000 Eh       -0.0000 kcal/mol
 total RMSD          :         0.0000000 a0        0.0000 Å
 total power (kW/mol):        -0.0000006 (step)   -0.0000 (real)
------------------------------------------------------------------------

 ANCopt (total)                0 d,  0 h,  0 min,  0.180 sec
 optimizer setup                ...        0 min,  0.000 sec (  0.152%)
 model hessian                  ...        0 min,  0.051 sec ( 28.214%)
 ANC generation                 ...        0 min,  0.006 sec (  3.532%)
 coordinate transformation      ...        0 min,  0.000 sec (  0.027%)
 single point calculation       ...        0 min,  0.120 sec ( 66.680%)
 optimization log               ...        0 min,  0.002 sec (  0.917%)
 hessian update                 ...        0 min,  0.000 sec (  0.001%)
 rational function              ...        0 min,  0.000 sec (  0.112%)

================
 final structure:
================
72
 xtb: 6.6.1 (8d0f1dd)
N           -1.63470851308519        1.61915219609293        2.38547407903442
C           -1.70580345407988        1.98196154089279        1.17331354187428
C           -2.87023392261069        1.78623635024458        0.31404844826032
C           -3.86092638518864        0.53396877630864        0.58163846352933
C           -4.42515976509083       -0.11684875740933       -0.59113325438034
C           -4.58339511658674       -1.47093540615193       -0.67451762575678
O           -5.09971010123027       -2.13510872942693       -1.73351385634122
C           -5.58509529551303       -1.39915284631601       -2.83207459378548
C           -4.20919889857953       -2.30869158640859        0.42465981378521
O           -4.41069842345836       -3.62312663642490        0.24628810098076
C           -4.20947279273091       -4.50847484192520        1.32524585947304
C           -3.70504073903013       -1.70475565813888        1.58249491433560
C           -3.54244128268727       -0.35103671467244        1.67894738277929
C           -2.59402282104306        2.13479673106230       -1.13608263535740
C           -1.69658149303803        1.08350273666173       -1.83114477473089
C           -0.31105626585513        1.09957110836805       -1.31722673424471
N            0.28259330237792        0.12102026521889       -0.64257930742103
C            1.67499778627345        0.24064755543956       -0.28074957527140
C            2.60575176725786       -0.37169826607397       -1.34625080872919
C            4.03982470100161       -0.17098789362142       -0.94286825180714
C            4.67769705536099        1.03358285743849       -1.19062528433344
C            5.98579236041482        1.24228722067634       -0.78157699206255
C            6.68389867317301        0.24686254324683       -0.11370578303029
O            7.95104941010137        0.33993605200384        0.33372558746687
C            8.66405741143771        1.53823624699018        0.13231781895599
C            6.04112616715040       -0.99601251274512        0.13706067094756
O            6.79521046792540       -1.91240504661674        0.77831550686013
C            6.25849352491536       -3.18822353789041        1.03277188181416
C            4.73060135953202       -1.17887770532831       -0.27473822805973
C           -0.38676173781025       -1.12306874863152       -0.34728525124649
C           -4.26142035226515        1.98172340311081        0.84975260928482
C           -4.52581192814990        2.47837797672310        2.24237374861697
C           -3.26412205165796        5.81618433224700        0.31878788091007
H           -4.77692006375067        0.50869324531048       -1.39384692284510
H           -6.39479338213943       -0.72484807016178       -2.53794684423555
H           -5.97287861540221       -2.13814156750465       -3.53038657063958
H           -4.78832590471673       -0.82608171604573       -3.32018112698913
H           -4.85507051230581       -4.25639010726951        2.17299412230718
H           -4.47700868530242       -5.49428190061456        0.94649836109441
H           -3.16348574752590       -4.51528132908342        1.65062218730274
H           -3.45661594178499       -2.31689142670828        2.43424919594574
H           -3.14944101283820        0.07988109377642        2.58155004818830
H           -3.52364841654312        2.22439884868353       -1.69466190890051
H           -2.10465649094193        3.11095734565326       -1.17561469397411
H           -2.15642142607405        0.10251024008336       -1.72019565968316
H           -1.66754321476947        1.33578143742207       -2.89647959964830
H           -0.88199612088654        2.49684849355277        0.65857401312840
H            0.28492085309719        1.97765331995346       -1.51152592485994
H            1.83909720553928       -0.25899425803140        0.67665816447884
H            1.92774299912216        1.29633885394577       -0.16031983019959
H            2.41357592022157        0.12016315468357       -2.30157911868873
H            2.38768704469474       -1.43459810179497       -1.45535996809641
H            4.16042625287889        1.82113071979089       -1.71755035818201
H            6.45664854063054        2.18820620947086       -0.99333548659533
H            8.17315068697066        2.38405472325476        0.62354135600006
H            8.78965728866528        1.75605720287241       -0.93258582777390
H            9.64059604772230        1.37602907282917        0.58461129413758
H            7.05300823036751       -3.74661365975546        1.52394367000463
H            5.39097815101155       -3.13395721166843        1.69851499843284
H            5.97799421927675       -3.69781201756259        0.10563351294839
H            4.23424266146283       -2.11859874773171       -0.08964120035078
H           -0.67466633121660       -1.64595067909812       -1.26253895728472
H           -1.28313570785719       -0.94365610776809        0.25208349998456
H            0.28324976935000       -1.76517920584070        0.21821692175491
H           -4.96289892372610        2.37568623656903        0.12153808454915
H           -3.70391594015910        2.24010222904655        2.90872210835020
H           -5.43854486448414        2.03305430022926        2.63195456383659
H           -4.65555788451242        3.55812902611111        2.21802232193461
H           -2.68289711110964        5.21493669445991        0.98378022894698
H           -2.89086287015942        6.06305634586360       -0.65248273301266
H           -4.18125278650075        6.24518456979326        0.65641187404951
H           -0.77335496655882        1.85391926082286        2.86823369484131

 Bond Distances (Angstroems)
 ---------------------------
N1-C2=1.2673         N1-H72=1.0149        C2-N1=1.2673         C2-C3=1.4603         C2-H47=1.0994        C3-C2=1.4603         
C3-C4=1.6190         C3-C14=1.5168        C3-C31=1.5035        C4-C3=1.6190         C4-C5=1.4551         C4-C13=1.4453        
C4-C31=1.5259        C5-C4=1.4551         C5-C6=1.3658         C5-H34=1.0767        C6-C5=1.3658         C6-O7=1.3525         
C6-C9=1.4318         O7-C6=1.3525         O7-C8=1.4086         C8-O7=1.4086         C8-H35=1.0940        C8-H36=1.0882        
C8-H37=1.0961        C9-C6=1.4318         C9-O10=1.3417        C9-C12=1.3998        O10-C9=1.3417        O10-C11=1.4101       
C11-O10=1.4101       C11-H38=1.0950       C11-H39=1.0894       C11-H40=1.0954       C12-C9=1.3998        C12-C13=1.3669       
C12-H41=1.0779       C13-C4=1.4453        C13-C12=1.3669       C13-H42=1.0746       C14-C3=1.5168        C14-C15=1.5472       
C14-H43=1.0882       C14-H44=1.0927       C15-C14=1.5472       C15-C16=1.4779       C15-H45=1.0891       C15-H46=1.0952       
C16-C15=1.4779       C16-N17=1.3286       C16-H48=1.0789       N17-C16=1.3286       N17-C18=1.4436       N17-C30=1.4433       
C18-N17=1.4436       C18-C19=1.5416       C18-H49=1.0923       C18-H50=1.0922       C19-C18=1.5416       C19-C20=1.5032       
C19-H51=1.0916       C19-H52=1.0905       C20-C19=1.5032       C20-C21=1.3854       C20-C29=1.3926       C21-C20=1.3854       
C21-C22=1.3864       C21-H53=1.0796       C22-C21=1.3864       C22-C23=1.3872       C22-H54=1.0776       C23-C22=1.3872       
C23-O24=1.3470       C23-C26=1.4215       O24-C23=1.3470       O24-C25=1.4089       C25-O24=1.4089       C25-H55=1.0944       
C25-H56=1.0942       C25-H57=1.0884       C26-C23=1.4215       C26-O27=1.3489       C26-C29=1.3858       O27-C26=1.3489       
O27-C28=1.4073       C28-O27=1.4073       C28-H58=1.0883       C28-H59=1.0949       C28-H60=1.0945       C29-C20=1.3926       
C29-C26=1.3858       C29-H61=1.0788       C30-N17=1.4433       C30-H62=1.0927       C30-H63=1.0931       C30-H64=1.0867       
C31-C3=1.5035        C31-C4=1.5259        C31-C32=1.5020       C31-H65=1.0852       C32-C31=1.5020       C32-H66=1.0846       
C32-H67=1.0877       C32-H68=1.0878       C33-H69=1.0684       C33-H70=1.0694       C33-H71=1.0673       H34-C5=1.0767        
H35-C8=1.0940        H36-C8=1.0882        H37-C8=1.0961        H38-C11=1.0950       H39-C11=1.0894       H40-C11=1.0954       
H41-C12=1.0779       H42-C13=1.0746       H43-C14=1.0882       H44-C14=1.0927       H45-C15=1.0891       H46-C15=1.0952       
H47-C2=1.0994        H48-C16=1.0789       H49-C18=1.0923       H50-C18=1.0922       H51-C19=1.0916       H52-C19=1.0905       
H53-C21=1.0796       H54-C22=1.0776       H55-C25=1.0944       H56-C25=1.0942       H57-C25=1.0884       H58-C28=1.0883       
H59-C28=1.0949       H60-C28=1.0945       H61-C29=1.0788       H62-C30=1.0927       H63-C30=1.0931       H64-C30=1.0867       
H65-C31=1.0852       H66-C32=1.0846       H67-C32=1.0877       H68-C32=1.0878       H69-C33=1.0684       H70-C33=1.0694       
H71-C33=1.0673       H72-N1=1.0149        
 C  H  Rav=1.0871 sigma=0.0083  Rmin=1.0673  Rmax=1.0994    38
 C  C  Rav=1.4555 sigma=0.0683  Rmin=1.3658  Rmax=1.6190    22
 N  H  Rav=1.0149 sigma=0.0000  Rmin=1.0149  Rmax=1.0149     1
 N  C  Rav=1.3707 sigma=0.0759  Rmin=1.2673  Rmax=1.4436     4
 O  C  Rav=1.3781 sigma=0.0307  Rmin=1.3417  Rmax=1.4101     8

 selected bond angles (degree)
 --------------------
H72-N1-C2=115.87               C3-C2-N1=124.69                H47-C2-N1=122.67               H47-C2-C3=112.63               
C4-C3-C2=119.63                C14-C3-C2=112.74               C14-C3-C4=116.56               C31-C3-C2=120.71               
C31-C3-C4= 58.36               C31-C3-C14=118.64              C5-C4-C3=116.74                C13-C4-C3=117.66               
C13-C4-C5=115.06               C31-C4-C3= 57.03               C31-C4-C5=117.66               C31-C4-C13=120.36              
C6-C5-C4=122.52                H34-C5-C4=117.88               H34-C5-C6=119.51               O7-C6-C5=125.37                
C9-C6-C5=120.19                C9-C6-O7=114.43                C8-O7-C6=119.05                H35-C8-O7=111.56               
H36-C8-O7=105.57               H36-C8-H35=109.11              H37-C8-O7=111.71               H37-C8-H35=109.60              
H37-C8-H36=109.17              O10-C9-C6=115.59               C12-C9-C6=118.47               C12-C9-O10=125.92              
C11-O10-C9=119.47              

 selected dihedral angles (degree)
 ---------------------------------
C3-C2-N1-H72=182.26           H47-C2-N1-H72=  1.51          C4-C3-C2-N1=331.24            C4-C3-C2-H47=151.92           
C14-C3-C2-N1=188.48           C14-C3-C2-H47=  9.16          C31-C3-C2-N1= 39.89           C31-C3-C2-H47=220.58          
C5-C4-C3-C2=216.88            C5-C4-C3-C14=358.28           C5-C4-C3-C31=107.02           C13-C4-C3-C2=359.97           
C13-C4-C3-C14=141.37          C13-C4-C3-C31=250.11          C31-C4-C3-C2=109.86           C31-C4-C3-C14=251.26          
C6-C5-C4-C3=141.06            C6-C5-C4-C13=357.01           C6-C5-C4-C31=205.98           H34-C5-C4-C3=317.63           
H34-C5-C4-C13=173.58          H34-C5-C4-C31= 22.54          O7-C6-C5-C4=180.00            O7-C6-C5-H34=  3.49           
C9-C6-C5-C4=  1.01            C9-C6-C5-H34=184.50           C8-O7-C6-C5=356.66            C8-O7-C6-C9=175.70            
H35-C8-O7-C6=300.21           H36-C8-O7-C6=181.82           H37-C8-O7-C6= 63.27           O10-C9-C6-C5=179.65           
O10-C9-C6-O7=  0.56           C12-C9-C6-C5=  1.12           C12-C9-C6-O7=182.02           C11-O10-C9-C6=186.89          
C11-O10-C9-C12=  5.29         

 CMA Distance (Angstroems)
 ---------------------------
R(CMA):  6.9622
           -------------------------------------------------
          |                Final Singlepoint                |
           -------------------------------------------------

          ...................................................
          :                      SETUP                      :
          :.................................................:
          :  # basis functions                 171          :
          :  # atomic orbitals                 171          :
          :  # shells                          105          :
          :  # electrons                       180          :
          :  max. iterations                   250          :
          :  Hamiltonian                  GFN2-xTB          :
          :  restarted?                      false          :
          :  GBSA solvation                  false          :
          :  PC potential                    false          :
          :  electronic temp.         5000.0000000     K    :
          :  accuracy                    1.0000000          :
          :  -> integral cutoff          0.2500000E+02      :
          :  -> integral neglect         0.1000000E-07      :
          :  -> SCF convergence          0.1000000E-05 Eh   :
          :  -> wf. convergence          0.1000000E-03 e    :
          :  Broyden damping             0.4000000          :
          ...................................................

 iter      E             dE          RMSdq      gap      omega  full diag
   1   -100.6602912 -0.100660E+03  0.197E-05    0.22       0.0  T
   2   -100.6602912  0.895255E-09  0.935E-05    0.22     126.1  T
   3   -100.6602912 -0.934762E-09  0.317E-06    0.22    3714.2  T

   *** convergence criteria satisfied after 3 iterations ***

         #    Occupation            Energy/Eh            Energy/eV
      -------------------------------------------------------------
         1        2.0000           -0.8167110             -22.2238
       ...           ...                  ...                  ...
        84        1.9964           -0.5095717             -13.8662
        85        1.9956           -0.5062808             -13.7766
        86        1.9813           -0.4834652             -13.1558
        87        1.9730           -0.4775657             -12.9952
        88        1.9654           -0.4735482             -12.8859
        89        1.8630           -0.4509280             -12.2704
        90        0.9946           -0.4094313             -11.1412 (HOMO)
        91        0.7491           -0.4014834             -10.9249 (LUMO)
        92        0.4655           -0.3907120             -10.6318
        93        0.0176           -0.3347677              -9.1095
        94        0.0049           -0.3145495              -8.5593
        95        0.0031           -0.3071247              -8.3573
       ...           ...                  ...                  ...
       171                          0.5814153              15.8211
      -------------------------------------------------------------
                  HL-Gap            0.0079479 Eh            0.2163 eV
             Fermi-level           -0.4096012 Eh          -11.1458 eV

 SCC (total)                   0 d,  0 h,  0 min,  0.117 sec
 SCC setup                      ...        0 min,  0.001 sec (  0.749%)
 Dispersion                     ...        0 min,  0.002 sec (  1.355%)
 classical contributions        ...        0 min,  0.000 sec (  0.370%)
 integral evaluation            ...        0 min,  0.018 sec ( 15.153%)
 iterations                     ...        0 min,  0.027 sec ( 22.712%)
 molecular gradient             ...        0 min,  0.069 sec ( 59.103%)
 printout                       ...        0 min,  0.001 sec (  0.545%)

         :::::::::::::::::::::::::::::::::::::::::::::::::::::
         ::                     SUMMARY                     ::
         :::::::::::::::::::::::::::::::::::::::::::::::::::::
         :: total energy             -99.284798262713 Eh    ::
         :: gradient norm              0.003385718795 Eh/a0 ::
         :: HOMO-LUMO gap              0.216274182176 eV    ::
         ::.................................................::
         :: SCC energy              -100.660291202088 Eh    ::
         :: -> isotropic ES            0.110544602517 Eh    ::
         :: -> anisotropic ES          0.003356708941 Eh    ::
         :: -> anisotropic XC          0.046071242837 Eh    ::
         :: -> dispersion             -0.073088682453 Eh    ::
         :: repulsion energy           1.374014095045 Eh    ::
         :: add. restraining           0.000000000000 Eh    ::
         :: total charge               1.000000000000 e     ::
         :::::::::::::::::::::::::::::::::::::::::::::::::::::

           -------------------------------------------------
          |                Property Printout                |
           -------------------------------------------------

    * Orbital Energies and Occupations

         #    Occupation            Energy/Eh            Energy/eV
      -------------------------------------------------------------
         1        2.0000           -0.8167110             -22.2238
       ...           ...                  ...                  ...
        78        1.9994           -0.5382056             -14.6453
        79        1.9993           -0.5355553             -14.5732
        80        1.9989           -0.5281922             -14.3728
        81        1.9985           -0.5239529             -14.2575
        82        1.9984           -0.5227471             -14.2247
        83        1.9975           -0.5153043             -14.0221
        84        1.9964           -0.5095717             -13.8662
        85        1.9956           -0.5062808             -13.7766
        86        1.9813           -0.4834652             -13.1558
        87        1.9730           -0.4775657             -12.9952
        88        1.9654           -0.4735482             -12.8859
        89        1.8630           -0.4509280             -12.2704
        90        0.9946           -0.4094313             -11.1412 (HOMO)
        91        0.7491           -0.4014834             -10.9249 (LUMO)
        92        0.4655           -0.3907120             -10.6318
        93        0.0176           -0.3347677              -9.1095
        94        0.0049           -0.3145495              -8.5593
        95        0.0031           -0.3071247              -8.3573
        96        0.0027           -0.3050362              -8.3005
        97        0.0000           -0.2381538              -6.4805
        98        0.0000           -0.1823136              -4.9610
        99                         -0.1409284              -3.8349
       100                         -0.1294253              -3.5218
       101                         -0.0746427              -2.0311
       ...                                ...                  ...
       171                          0.5814153              15.8211
      -------------------------------------------------------------
                  HL-Gap            0.0079479 Eh            0.2163 eV
             Fermi-level           -0.4096012 Eh          -11.1458 eV

     #   Z          covCN         q      C6AA      α(0)
     1   7 N        1.775    -0.320    29.106     7.989
     2   6 C        2.819     0.083    26.132     8.376
     3   6 C        3.899     0.008    20.391     6.419
     4   6 C        3.907     0.029    20.034     6.362
     5   6 C        2.909    -0.092    30.301     9.026
     6   6 C        2.853     0.128    25.192     8.226
     7   8 O        1.706    -0.240    17.985     5.726
     8   6 C        3.644     0.028    20.443     6.499
     9   6 C        2.862     0.127    25.216     8.231
    10   8 O        1.706    -0.214    17.549     5.656
    11   6 C        3.645     0.023    20.528     6.512
    12   6 C        2.905    -0.071    29.765     8.946
    13   6 C        2.909    -0.050    29.233     8.866
    14   6 C        3.807    -0.065    21.742     6.638
    15   6 C        3.803    -0.068    21.802     6.648
    16   6 C        2.846    -0.001    28.053     8.680
    17   7 N        2.729     0.014    21.015     6.809
    18   6 C        3.757    -0.017    20.930     6.523
    19   6 C        3.807    -0.070    21.832     6.651
    20   6 C        2.969    -0.001    28.054     8.688
    21   6 C        2.922    -0.050    29.240     8.868
    22   6 C        2.914    -0.068    29.698     8.936
    23   6 C        2.865     0.132    25.103     8.213
    24   8 O        1.706    -0.225    17.730     5.685
    25   6 C        3.645     0.026    20.472     6.503
    26   6 C        2.863     0.132    25.107     8.213
    27   8 O        1.706    -0.227    17.770     5.691
    28   6 C        3.645     0.028    20.440     6.498
    29   6 C        2.920    -0.080    29.992     8.981
    30   6 C        3.699    -0.069    21.991     6.707
    31   6 C        3.858    -0.003    20.592     6.454
    32   6 C        3.752    -0.121    22.875     6.820
    33   6 C        2.780    -0.152    31.888     9.249
    34   1 H        0.926     0.050     2.319     2.381
    35   1 H        0.924     0.052     2.295     2.369
    36   1 H        0.925     0.081     1.971     2.195
    37   1 H        0.924     0.043     2.413     2.429
    38   1 H        0.924     0.061     2.190     2.314
    39   1 H        0.925     0.084     1.936     2.176
    40   1 H        0.924     0.053     2.282     2.363
    41   1 H        0.926     0.060     2.204     2.322
    42   1 H        0.926     0.092     1.860     2.133
    43   1 H        0.925     0.057     2.234     2.338
    44   1 H        0.924     0.059     2.206     2.323
    45   1 H        0.925     0.063     2.168     2.303
    46   1 H        0.924     0.074     2.047     2.237
    47   1 H        0.923     0.004     2.993     2.705
    48   1 H        0.926     0.065     2.139     2.287
    49   1 H        0.924     0.068     2.110     2.272
    50   1 H        0.924     0.067     2.116     2.275
    51   1 H        0.924     0.055     2.260     2.351
    52   1 H        0.924     0.054     2.274     2.358
    53   1 H        0.926     0.043     2.415     2.430
    54   1 H        0.926     0.057     2.237     2.339
    55   1 H        0.924     0.052     2.289     2.366
    56   1 H        0.924     0.055     2.264     2.353
    57   1 H        0.925     0.081     1.970     2.195
    58   1 H        0.925     0.080     1.974     2.197
    59   1 H        0.924     0.048     2.351     2.398
    60   1 H        0.924     0.051     2.303     2.373
    61   1 H        0.926     0.046     2.364     2.404
    62   1 H        0.924     0.075     2.033     2.230
    63   1 H        0.924     0.078     1.997     2.210
    64   1 H        0.925     0.079     1.991     2.206
    65   1 H        0.925     0.054     2.272     2.357
    66   1 H        0.925     0.078     1.997     2.210
    67   1 H        0.925     0.061     2.183     2.311
    68   1 H        0.925     0.061     2.193     2.316
    69   1 H        0.927     0.047     2.354     2.399
    70   1 H        0.927     0.052     2.291     2.367
    71   1 H        0.927     0.058     2.219     2.329
    72   1 H        0.860     0.148     1.418     1.865

 Mol. C6AA /au·bohr⁶  :      47406.384006
 Mol. C8AA /au·bohr⁸  :    1081938.016645
 Mol. α(0) /au        :        334.273901


Wiberg/Mayer (AO) data.
largest (>0.10) Wiberg bond orders for each atom

 ---------------------------------------------------------------------------
     #   Z sym  total        # sym  WBO       # sym  WBO       # sym  WBO
 ---------------------------------------------------------------------------
     1   7 N    2.956 --     2 C    1.830    72 H    0.949
     2   6 C    3.923 --     1 N    1.830     3 C    1.092    47 H    0.929
     3   6 C    3.839 --     2 C    1.092    14 C    1.001    31 C    0.921
                             4 C    0.700
     4   6 C    3.937 --    13 C    1.137     5 C    1.113    31 C    0.853
                             3 C    0.700
     5   6 C    3.822 --     6 C    1.519     4 C    1.113    34 H    0.958
     6   6 C    3.930 --     5 C    1.519     9 C    1.169     7 O    1.086
     7   8 O    2.253 --     6 C    1.086     8 C    0.979
     8   6 C    3.935 --     7 O    0.979    36 H    0.977    37 H    0.975
                            35 H    0.974
     9   6 C    3.728 --    12 C    1.304     6 C    1.169    10 O    1.126
    10   8 O    2.243 --     9 C    1.126    11 C    0.973
    11   6 C    3.928 --    39 H    0.977    10 O    0.973    40 H    0.973
                            38 H    0.973
    12   6 C    3.977 --    13 C    1.547     9 C    1.304    41 H    0.961
    13   6 C    3.771 --    12 C    1.547     4 C    1.137    42 H    0.951
    14   6 C    3.961 --     3 C    1.001    43 H    0.969    44 H    0.965
                            15 C    0.962
    15   6 C    3.987 --    16 C    1.061    45 H    0.964    14 C    0.962
                            46 H    0.944
    16   6 C    3.541 --    17 N    1.397    15 C    1.061    48 H    0.960
    17   7 N    3.458 --    16 C    1.397    30 C    0.999    18 C    0.989
    18   6 C    3.956 --    17 N    0.989    50 H    0.967    19 C    0.966
                            49 H    0.965
    19   6 C    3.975 --    20 C    1.008    52 H    0.973    51 H    0.970
                            18 C    0.966
    20   6 C    3.949 --    21 C    1.411    29 C    1.380    19 C    1.008
    21   6 C    3.953 --    22 C    1.416    20 C    1.411    53 H    0.968
    22   6 C    3.962 --    21 C    1.416    23 C    1.385    54 H    0.963
    23   6 C    3.899 --    22 C    1.385    26 C    1.224    24 O    1.106
    24   8 O    2.255 --    23 C    1.106    25 C    0.977
    25   6 C    3.930 --    57 H    0.977    24 O    0.977    55 H    0.973
                            56 H    0.973
    26   6 C    3.903 --    29 C    1.396    23 C    1.224    27 O    1.100
    27   8 O    2.254 --    26 C    1.100    28 C    0.979
    28   6 C    3.933 --    27 O    0.979    58 H    0.977    59 H    0.974
                            60 H    0.974
    29   6 C    3.961 --    26 C    1.396    20 C    1.380    61 H    0.962
    30   6 C    3.959 --    17 N    0.999    64 H    0.978    62 H    0.966
                            63 H    0.963
    31   6 C    3.863 --    32 C    1.025    65 H    0.961     3 C    0.921
                             4 C    0.853
    32   6 C    3.979 --    31 C    1.025    68 H    0.974    67 H    0.973
                            66 H    0.967
    33   6 C    2.985 --    70 H    0.995    69 H    0.995    71 H    0.994
    34   1 H    0.996 --     5 C    0.958
    35   1 H    0.996 --     8 C    0.974
    36   1 H    0.993 --     8 C    0.977
    37   1 H    0.997 --     8 C    0.975
    38   1 H    0.990 --    11 C    0.973
    39   1 H    0.992 --    11 C    0.977
    40   1 H    0.991 --    11 C    0.973
    41   1 H    0.995 --    12 C    0.961
    42   1 H    0.991 --    13 C    0.951
    43   1 H    0.995 --    14 C    0.969
    44   1 H    0.990 --    14 C    0.965
    45   1 H    0.996 --    15 C    0.964
    46   1 H    0.976 --    15 C    0.944
    47   1 H    0.988 --     2 C    0.929
    48   1 H    0.996 --    16 C    0.960
    49   1 H    0.991 --    18 C    0.965
    50   1 H    0.993 --    18 C    0.967
    51   1 H    0.995 --    19 C    0.970
    52   1 H    0.996 --    19 C    0.973
    53   1 H    0.998 --    21 C    0.968
    54   1 H    0.995 --    22 C    0.963
    55   1 H    0.993 --    25 C    0.973
    56   1 H    0.992 --    25 C    0.973
    57   1 H    0.993 --    25 C    0.977
    58   1 H    0.993 --    28 C    0.977
    59   1 H    0.994 --    28 C    0.974
    60   1 H    0.993 --    28 C    0.974
    61   1 H    0.997 --    29 C    0.962
    62   1 H    0.985 --    30 C    0.966
    63   1 H    0.985 --    30 C    0.963
    64   1 H    0.994 --    30 C    0.978
    65   1 H    0.995 --    31 C    0.961
    66   1 H    0.993 --    32 C    0.967
    67   1 H    0.992 --    32 C    0.973
    68   1 H    0.990 --    32 C    0.974
    69   1 H    0.997 --    33 C    0.995
    70   1 H    0.997 --    33 C    0.995
    71   1 H    0.996 --    33 C    0.994
    72   1 H    0.975 --     1 N    0.949
 ---------------------------------------------------------------------------

Topologies differ in total number of bonds
Writing topology from bond orders to xtbtopo.mol

molecular dipole:
                 x           y           z       tot (Debye)
 q only:       -0.478      -0.182      -0.457
   full:       -0.314       0.228      -0.749       2.143
molecular quadrupole (traceless):
                xx          xy          yy          xz          yz          zz
 q only:       46.501       5.007     -12.700       0.821     -11.541     -33.800
  q+dip:       41.220       5.564      -8.024       3.463     -14.690     -33.197
   full:       41.292       5.231      -8.358       1.763     -13.340     -32.934

           -------------------------------------------------
          |                Geometry Summary                 |
           -------------------------------------------------

      molecular mass/u    :      455.6105846
   center of mass at/Å    :       -0.0031117      -0.0608085      -0.0106359
  moments of inertia/u·Å² :        0.2718737E+04   0.1026875E+05   0.1158189E+05
rotational constants/cm⁻¹ :        0.6200538E-02   0.1641644E-02   0.1455516E-02

 * 69 selected distances

     #   Z          #   Z                                           value/Å
     1   7 N        2   6 C                                       1.2672879
     2   6 C        3   6 C                                       1.4603231
     4   6 C        5   6 C                                       1.4551002
     5   6 C        6   6 C                                       1.3658486
     6   6 C        7   8 O                                       1.3524721
     7   8 O        8   6 C                                       1.4085687
     6   6 C        9   6 C                                       1.4317994
     9   6 C       10   8 O                                       1.3416998
    10   8 O       11   6 C                                       1.4101360
     9   6 C       12   6 C                                       1.3998202
     4   6 C       13   6 C                                       1.4452525
    12   6 C       13   6 C                                       1.3668566
     3   6 C       14   6 C                                       1.5167951
    15   6 C       16   6 C                                       1.4778533
    16   6 C       17   7 N                                       1.3285823
    17   7 N       18   6 C                                       1.4436142
    18   6 C       19   6 C                                       1.5416107 (max)
    20   6 C       21   6 C                                       1.3853721
    21   6 C       22   6 C                                       1.3863592
    22   6 C       23   6 C                                       1.3871824
    23   6 C       24   8 O                                       1.3470445
    24   8 O       25   6 C                                       1.4088539
    23   6 C       26   6 C                                       1.4215411
    26   6 C       27   8 O                                       1.3489353
    27   8 O       28   6 C                                       1.4073117
    20   6 C       29   6 C                                       1.3926279
    26   6 C       29   6 C                                       1.3858188
    17   7 N       30   6 C                                       1.4432576
     3   6 C       31   6 C                                       1.5035273
     4   6 C       31   6 C                                       1.5258684
    31   6 C       32   6 C                                       1.5019863
     5   6 C       34   1 H                                       1.0767486
     8   6 C       35   1 H                                       1.0939878
     8   6 C       36   1 H                                       1.0881728
     8   6 C       37   1 H                                       1.0961296
    11   6 C       38   1 H                                       1.0949979
    11   6 C       39   1 H                                       1.0894223
    11   6 C       40   1 H                                       1.0954475
    12   6 C       41   1 H                                       1.0779196
    13   6 C       42   1 H                                       1.0746307
    14   6 C       43   1 H                                       1.0882294
    14   6 C       44   1 H                                       1.0926719
    15   6 C       45   1 H                                       1.0890863
    15   6 C       46   1 H                                       1.0951832
     2   6 C       47   1 H                                       1.0994199
    16   6 C       48   1 H                                       1.0788742
    18   6 C       49   1 H                                       1.0923371
    18   6 C       50   1 H                                       1.0921849
    19   6 C       51   1 H                                       1.0915638
    19   6 C       52   1 H                                       1.0905106
    21   6 C       53   1 H                                       1.0795605
    22   6 C       54   1 H                                       1.0776410
    25   6 C       55   1 H                                       1.0943944
    25   6 C       56   1 H                                       1.0941852
    25   6 C       57   1 H                                       1.0883513
    28   6 C       58   1 H                                       1.0882569
    28   6 C       59   1 H                                       1.0948707
    28   6 C       60   1 H                                       1.0945072
    29   6 C       61   1 H                                       1.0787533
    30   6 C       62   1 H                                       1.0926958
    30   6 C       63   1 H                                       1.0931232
    30   6 C       64   1 H                                       1.0867448
    31   6 C       65   1 H                                       1.0851615
    32   6 C       66   1 H                                       1.0845777
    32   6 C       67   1 H                                       1.0877353
    32   6 C       68   1 H                                       1.0877911
    33   6 C       69   1 H                                       1.0684270
    33   6 C       70   1 H                                       1.0694087
    33   6 C       71   1 H                                       1.0673145 (min)

 * 4 distinct bonds (by element types)

   Z      Z             #   av. dist./Å        max./Å        min./Å
   1 H    6 C          38     1.0871321     1.0994199     1.0673145
   6 C    6 C          19     1.4395549     1.5416107     1.3658486
   6 C    7 N           4     1.3706855     1.4436142     1.2672879
   6 C    8 O           8     1.3781277     1.4101360     1.3416998


optimized geometry written to: xtbopt.xyz


           -------------------------------------------------
          | TOTAL ENERGY              -99.284798262713 Eh   |
          | GRADIENT NORM               0.003385718795 Eh/α |
          | HOMO-LUMO GAP               0.216274182176 eV   |
           -------------------------------------------------

------------------------------------------------------------------------
 * finished run on 2024/04/06 at 11:14:48.542     
------------------------------------------------------------------------
 total:
 * wall-time:     0 d,  0 h,  0 min,  0.473 sec
 *  cpu-time:     0 d,  0 h,  0 min,  0.443 sec
 * ratio c/w:     0.935 speedup
 SCF:
 * wall-time:     0 d,  0 h,  0 min,  0.121 sec
 *  cpu-time:     0 d,  0 h,  0 min,  0.121 sec
 * ratio c/w:     0.996 speedup
 ANC optimizer:
 * wall-time:     0 d,  0 h,  0 min,  0.305 sec
 *  cpu-time:     0 d,  0 h,  0 min,  0.297 sec
 * ratio c/w:     0.976 speedup

