72
 energy: 0.000000000000 xtb: 6.6.1 (8d0f1dd)
N           -1.47310921155849        2.74401293103706        2.22063921685122
C           -1.55658879776851        2.16490285539332        1.13274273951491
C           -2.74549199786261        2.05621232186130        0.23826248438941
C           -3.31377553111525        0.64333411542669        0.32332512650568
C           -4.30230156009016        0.24487110156316       -0.58026161703006
C           -4.85238763031941       -1.02286490450319       -0.53363588718165
O           -5.81419972815119       -1.48606034185536       -1.36157882725342
C           -6.39655633239252       -0.60827000183299       -2.29568474302620
C           -4.39972501531283       -1.94646102182611        0.44396929121966
O           -4.98748311285188       -3.16145997157803        0.41085992006324
C           -4.66362127904578       -4.10093827755394        1.40909127743729
C           -3.42072513477031       -1.54561384810496        1.33436546260297
C           -2.88302799614223       -0.26315800396994        1.27400150770375
C           -2.19303798107274        2.30467000305896       -1.18742977106749
C           -1.26651538239283        1.17243369445008       -1.65249429687285
C            0.01082524939134        1.09745454476277       -0.89354803499847
N            0.61779393476578       -0.02034948052406       -0.57705522512502
C            2.00145210352228       -0.02376006389122       -0.15611399603240
C            2.92554934655222       -0.53865282675074       -1.27700088804721
C            4.35756843073516       -0.43050757231754       -0.83075544324989
C            5.07346135469827        0.73206409086248       -1.03980965825901
C            6.38627986649936        0.84224441421807       -0.60344822702769
C            7.00047264773336       -0.20824756335880        0.05722314418200
O            8.26703657141718       -0.21011313101264        0.52410943644933
C            9.06912227848686        0.92943601033931        0.31863058007678
C            6.27039964270142       -1.40439753960823        0.28033466008274
O            6.94829939911432       -2.38012925705718        0.92751999079483
C            6.31537317745639       -3.61583200086742        1.15217711710877
C            4.96302794628964       -1.49347471867959       -0.16064430359178
C           -0.05511211367372       -1.29906247805359       -0.62085686319744
C           -3.86758037025447        3.07992600430699        0.58498060215443
C           -4.49286159663096        2.77383493050346        1.94313289484366
C           -3.39165179876499        4.52917666589254        0.54797523472093
H           -4.66030026466202        0.94509067363451       -1.31640568823548
H           -6.85037928558380        0.25803162192116       -1.80468845313260
H           -7.17287442604349       -1.18600110843259       -2.79318157561361
H           -5.66836817451085       -0.26952966318766       -3.04040255244073
H           -4.88416720672258       -3.71589460520039        2.40913542187496
H           -5.29223570620378       -4.96637458756866        1.20969236903657
H           -3.61139813139015       -4.39919835331056        1.35529357841967
H           -3.07077796610445       -2.21868765711333        2.10002662693138
H           -2.14562754426994        0.02067850696302        2.01001344383370
H           -3.02188875377605        2.38238012313952       -1.88813545054866
H           -1.65198530896729        3.25146700677685       -1.20556284570283
H           -1.81103374245520        0.23006524641044       -1.62116301628650
H           -0.99335688527853        1.37490212198123       -2.69443256973690
H           -0.67628064361333        1.65183887049447        0.61785727145403
H            0.63525841192517        1.98466369793744       -0.92314021190751
H            2.11132552493482       -0.65949692842762        0.72532613231274
H            2.30680473056284        0.98978251704176        0.11078972794250
H            2.76694198818247        0.06750735147374       -2.17075252200790
H            2.67954581369920       -1.57455627803457       -1.51167743520200
H            4.62169998552446        1.56295612048703       -1.56123579000624
H            6.92357674630170        1.75715815945204       -0.79119596719031
H            8.65159112996149        1.81001823324363        0.81701555159939
H            9.20136171144928        1.14042857828877       -0.74698991949293
H           10.03428838009630        0.69003240176163        0.76064937965836
H            7.05567174969094       -4.23621171795340        1.65347565939075
H            5.43848001056755       -3.50813558175093        1.79970565785717
H            6.02060041905269       -4.09420497120334        0.21253282636366
H            4.40102758497114       -2.40127266373392       -0.00490198249042
H           -0.22071299714579       -1.61775583601871       -1.65116008982042
H           -1.01972258008625       -1.24102717432227       -0.10935206830928
H            0.55899954147532       -2.04486085926761       -0.12333730421426
H           -4.63991875734388        2.95501092798550       -0.18098088071825
H           -3.76095216473977        2.90314704960906        2.73380821053058
H           -4.87457614030224        1.75695641518947        1.97884603101694
H           -5.31925552549014        3.45579210326349        2.12325564252114
H           -2.60025590131176        4.69225046143352        1.27368918226171
H           -3.03987406413880        4.81897652321898       -0.43870975059559
H           -4.22191740670577        5.18069648090034        0.80616693961239
H           -0.59832433787845        2.77744694953323        2.72958984441332
72
 energy: -5.359227289290 xtb: 6.6.1 (8d0f1dd)
N           -1.52133984557633        2.79890943592414        2.25924267220466
C           -1.56940906171179        2.15536518661212        1.18197083124878
C           -2.75444008072723        2.06217177303551        0.26421657417110
C           -3.32646956012694        0.65349721595344        0.34395416577432
C           -4.30088263773219        0.24708485781714       -0.56929231974112
C           -4.84443799092920       -1.02190382405855       -0.52622757670875
O           -5.79934036371956       -1.49647938366941       -1.37381007154344
C           -6.35536303194669       -0.61998137191205       -2.31860159519261
C           -4.41020737938492       -1.93701091897839        0.45761669663961
O           -5.00384276814577       -3.16296658898053        0.41949061825561
C           -4.68691555264787       -4.09208007382024        1.42337144521631
C           -3.44886266695926       -1.53243666882020        1.36271900063534
C           -2.91306385968996       -0.25061308612950        1.30436050333378
C           -2.19054182781830        2.29164254719589       -1.15955514553275
C           -1.28861400181631        1.14571641991228       -1.64432052642893
C           -0.01993728931375        1.09838965320023       -0.85854930628454
N            0.63997992860662       -0.07132409142404       -0.55818331631197
C            2.01006230013760       -0.05008718981432       -0.16254700370660
C            2.94562310485170       -0.53670690853097       -1.29082792314370
C            4.36976180644576       -0.43038717956434       -0.84888740004872
C            5.08720781193356        0.73437467142063       -1.04982337157931
C            6.39813521927048        0.84497804258781       -0.60957127317514
C            7.00821888134236       -0.20787677602694        0.04844276367393
O            8.28642403922390       -0.21175739085007        0.52115515632335
C            9.07926549292965        0.92870125132882        0.31660492686981
C            6.28075435599400       -1.39981742484159        0.26770885362853
O            6.96343464338355       -2.38416489851455        0.91750464607403
C            6.32433316064548       -3.61457417255230        1.13767069398522
C            4.97606724090623       -1.49192157956747       -0.17652835484335
C           -0.03635673729322       -1.32864677824789       -0.64696596669397
C           -3.87792227688083        3.08347679897747        0.58196974768248
C           -4.51923352947866        2.79092339467434        1.93617789957027
C           -3.39936044984375        4.53375134757868        0.54382647968500
H           -4.64203219123887        0.94188250166262       -1.31902633889197
H           -6.81341382155617        0.25238407539186       -1.84052238236648
H           -7.12435812486013       -1.19753238937244       -2.82878167110561
H           -5.61180318103002       -0.28447502932205       -3.04934585879121
H           -4.92143513979142       -3.70520252665547        2.42053032700415
H           -5.30820931573734       -4.96280810394345        1.21954086429887
H           -3.63215935124504       -4.38521912036906        1.38784376225145
H           -3.10975681735583       -2.20400399269194        2.13526122173670
H           -2.18339452131711        0.03855609293050        2.04459248940268
H           -3.01324448832873        2.39842613656941       -1.86456101997209
H           -1.62701064248299        3.22727935712857       -1.16832796663639
H           -1.86795292821933        0.21668703833280       -1.67985914423620
H           -1.05729787093330        1.34107568096569       -2.69548778006463
H           -0.70262843957826        1.64072863890333        0.69756502341795
H            0.62592344751428        1.95907532265661       -0.88890678293440
H            2.13894014768124       -0.69267291209818        0.71560904143609
H            2.30274620793707        0.96479743824219        0.11641411855191
H            2.77309563000039        0.08425714141221       -2.17202971900128
H            2.69532591471016       -1.56858336594049       -1.53999733279225
H            4.63356256085003        1.56678371810771       -1.56761705585630
H            6.93629023606323        1.76107434200506       -0.79372138934267
H            8.65970243311829        1.80970073292219        0.81415115716474
H            9.21406572014963        1.14379361167606       -0.74912913975537
H           10.04495471264171        0.69228179146010        0.76014168105728
H            7.06208916405625       -4.23870315687713        1.63972218238825
H            5.44517657411989       -3.50646754361587        1.78274624719499
H            6.02840863272153       -4.09225140841269        0.19719359297237
H            4.41149468269954       -2.39847864963579       -0.02214502575972
H           -0.20946203672776       -1.61973400644878       -1.68925114956753
H           -1.00187292805498       -1.27747940091001       -0.13709915958229
H            0.57699265887641       -2.08670046925217       -0.16711521824287
H           -4.64596176661862        2.96032923413167       -0.19079617067448
H           -3.78894694783574        2.92317756998697        2.72664205982761
H           -4.89967502559538        1.77314403930106        1.97232588302469
H           -5.34696248837619        3.47540549123476        2.10594646480931
H           -2.61471331500957        4.69238096540542        1.27668109597249
H           -3.03104383360995        4.81280482167049       -0.44029264975755
H           -4.23018650250882        5.19208310827958        0.78779863368978
H           -0.63441595327655        2.78990982821175        2.75987684077522
72
 energy: -3.539867386512 xtb: 6.6.1 (8d0f1dd)
N           -1.55186737462168        2.82757021215182        2.28352228815461
C           -1.58971360788345        2.15910910829072        1.22042732601123
C           -2.76278408122890        2.06487293507247        0.28576322567871
C           -3.33836972822655        0.65926824067681        0.36405744763197
C           -4.29828568600713        0.24824249865190       -0.56145339062992
C           -4.83982872084446       -1.02160236664622       -0.52179502713220
O           -5.77894608485474       -1.50364986873993       -1.38333627507017
C           -6.31433506704990       -0.63090557321475       -2.34217391619854
C           -4.42207386672626       -1.93172536178342        0.47225190073211
O           -5.01584148812795       -3.15853387289766        0.42851104967744
C           -4.71061039081443       -4.08387682333278        1.43890711528537
C           -3.47564835689034       -1.52183779890503        1.39019793874955
C           -2.93969033467047       -0.24035540927069        1.33363849093808
C           -2.18544278227405        2.28132013873248       -1.13235217046956
C           -1.31636094594740        1.11036373984990       -1.61891236686767
C           -0.04370558783412        1.06645859311261       -0.82216959944912
N            0.64730985311809       -0.09705142414533       -0.55344310271591
C            2.01929962228173       -0.06934510009644       -0.16627949291762
C            2.95684904976522       -0.53314769508955       -1.30307278533150
C            4.38086590878373       -0.42762084752573       -0.86112239635742
C            5.09906312674391        0.73751881810989       -1.05868516585387
C            6.41000181921668        0.84741410331204       -0.61706971777491
C            7.01974186297592       -0.20690750302309        0.03911767345478
O            8.29776502993023       -0.21229908462632        0.51431484336190
C            9.08992454401718        0.92916953082754        0.31356398401350
C            6.29166602668220       -1.39880677604606        0.25526009048993
O            6.97413574059264       -2.38501702220441        0.90392537915011
C            6.33237696567221       -3.61424144658837        1.12242572896921
C            4.98718743228382       -1.49016420692552       -0.19047006747879
C           -0.02069341685159       -1.35368459969009       -0.67467641348631
C           -3.88751933276708        3.08954799120976        0.58030571562949
C           -4.54434833130851        2.80693955329122        1.92844307669374
C           -3.40524704566594        4.53830217886424        0.53880666587366
H           -4.62514743004930        0.93902226267677       -1.32116017079732
H           -6.77702912416606        0.24587051591220       -1.87680596545373
H           -7.07460091135336       -1.20960043590282       -2.86356358837649
H           -5.55543671806720       -0.30028389324850       -3.05879483054360
H           -4.96037461149286       -3.69478860168782        2.43136162153760
H           -5.32531146855044       -4.95779734397045        1.22864174432477
H           -3.65426823795923       -4.37231786193413        1.42057236370125
H           -3.14924840285648       -2.18961021375636        2.17107538368412
H           -2.22137261478993        0.05410847182950        2.08223505806910
H           -3.00027772138351        2.41315122486834       -1.84094133213316
H           -1.60158496277933        3.20551358890121       -1.13307904340046
H           -1.93754770984769        0.20202972153692       -1.72896469086157
H           -1.09915835300686        1.29984458419940       -2.66978649594897
H           -0.72236988726407        1.62802089221104        0.75927255634760
H            0.60127471005197        1.92958200028623       -0.83732292512490
H            2.15907331505425       -0.72277371206900        0.70276969305321
H            2.30513468956560        0.94302844500693        0.12546049093105
H            2.78018106556978        0.10113285854515       -2.17410253850272
H            2.71057675875101       -1.56194767725199       -1.56778967649867
H            4.64598499913153        1.57160283059346       -1.57451206603009
H            6.94857797072954        1.76408352934251       -0.79829857397548
H            8.66840231141419        1.80886476661240        0.81160458847495
H            9.22723156817015        1.14704713914982       -0.75144788924423
H           10.05465640845614        0.69312147401031        0.75903036422510
H            7.06831775764049       -4.24036341681214        1.62472548475538
H            5.45222432513355       -3.50489992236484        1.76615935548568
H            6.03627428089917       -4.09064077142467        0.18127711556612
H            4.42172278214676       -2.39629297504362       -0.03852731230019
H           -0.19598411391897       -1.61581843440649       -1.72487749140587
H           -0.98622315708214       -1.31222385945191       -0.16602975402227
H            0.59491640593295       -2.12031995252679       -0.21296076594309
H           -4.64756768610801        2.96352971174933       -0.20020252541455
H           -3.82100731343980        2.94418227575164        2.72344783653171
H           -4.92569269605347        1.78966208153125        1.96595757468991
H           -5.37273704804948        3.49368250142668        2.08594301033447
H           -2.62995644865504        4.69771035038975        1.28067613868202
H           -3.02235466521337        4.80873071757217       -0.44219403272520
H           -4.23683223209879        5.20135536344316        0.76811020787314
H           -0.67340696229706        2.81090318386152        2.79818930957669
72
 energy: -0.327433697459 xtb: 6.6.1 (8d0f1dd)
N           -1.58298399910024        2.85672499034897        2.30583009846505
C           -1.61003264695569        2.16315333077005        1.25793697095873
C           -2.77121289118708        2.06756808528592        0.30700095930682
C           -3.35067345206441        0.66498476470993        0.38437981850852
C           -4.29577771365635        0.24927040935969       -0.55348970280116
C           -4.83543236347422       -1.02140216792934       -0.51728817187899
O           -5.75864811145818       -1.51060342842188       -1.39270584438256
C           -6.27343673955124       -0.64185064921218       -2.36542791024583
C           -4.43435104339202       -1.92648494546576        0.48696404577005
O           -5.02793842336718       -3.15423726462008        0.43770091756465
C           -4.73418557030831       -4.07597375869932        1.45427489635828
C           -3.50319121265825       -1.51135305691804        1.41778770154216
C           -2.96701670925747       -0.23016761769502        1.36305268677041
C           -2.18015343189657        2.27137965087154       -1.10528880418043
C           -1.34676868415345        1.07375841253257       -1.59191912430433
C           -0.06690208888136        1.03215066608028       -0.78721779693663
N            0.65419059123986       -0.12343513578908       -0.54815189695550
C            2.02825898957547       -0.08776528224558       -0.17073336081289
C            2.96773964468040       -0.52880385041481       -1.31559224537935
C            4.39177717809297       -0.42429620584857       -0.87367541558974
C            5.11127210257501        0.74075172292629       -1.06837822631264
C            6.42220628458976        0.84966879925794       -0.62534383491551
C            7.03119962521978       -0.20604184937080        0.02945961973583
O            8.30888431030735       -0.21309597993823        0.50754425988187
C            9.10070718094775        0.92922070551106        0.31114311466356
C            6.30225196798412       -1.39771958852241        0.24245695834515
O            6.98447640763216       -2.38569704718362        0.89012598851029
C            6.34054199399001       -3.61389132175023        1.10732360629719
C            4.99794612229096       -1.48799321246510       -0.20473704342553
C           -0.00466763510008       -1.37910710607533       -0.70273288766868
C           -3.89683149929320        3.09562600642985        0.57879702085810
C           -4.56928473154454        2.82300519736992        1.92073253530052
C           -3.41109091569967        4.54298448589858        0.53375512349254
H           -4.60827666431884        0.93590247848521       -1.32308083973649
H           -6.74082223533087        0.23926131209244       -1.91303304179218
H           -7.02497268598903       -1.22164588821955       -2.89785809823940
H           -5.49973387310843       -0.31614147611357       -3.06800225700716
H           -4.99907399769939       -3.68506509306064        2.44198098620227
H           -5.34220812609221       -4.95306015784916        1.23759896146525
H           -3.67648869381110       -4.35970227557716        1.45297124296925
H           -3.18946517729804       -2.17524342586891        2.20686500167839
H           -2.25994335326355        0.06935598196898        2.11984092629755
H           -2.98675131336962        2.42760633325931       -1.81710290457677
H           -1.57688269751495        3.18426727180874       -1.09810449432651
H           -2.01396355530292        0.18967117235235       -1.76636643565613
H           -1.13710627487180        1.25410071320636       -2.64054395141054
H           -0.74277044311498        1.61468619731715        0.82153574928144
H            0.57660272403387        1.89914903677142       -0.78479626063067
H            2.17862379940171       -0.75132769291908        0.68939466677098
H            2.30677257713238        0.92227295902123        0.13382886261304
H            2.78684121036743        0.11839691302207       -2.17638586216684
H            2.72516447359744       -1.55439975623203       -1.59547704014340
H            4.65911659773305        1.57633067604506       -1.58278238573779
H            6.96147523338058        1.76671621570594       -0.80375199112955
H            8.67730982061896        1.80769200141587        0.80963141299961
H            9.24106941767078        1.14989872400677       -0.75302847990073
H           10.06423273715759        0.69326257700679        0.75894155931043
H            7.07494020109939       -4.24152605756203        1.61006934736218
H            5.45940391249190       -3.50354810942803        1.74973680868364
H            6.04462766386132       -4.08946808182971        0.16563670624619
H            4.43143709833295       -2.39366230949420       -0.05533125718246
H           -0.18267290949438       -1.61292093418773       -1.75979311566762
H           -0.96983818612160       -1.34961682507745       -0.19430102131702
H            0.61432225755626       -2.15326703171499       -0.25992488197565
H           -4.64857462151034        2.96651295020553       -0.20957397437006
H           -3.85326837825903        2.96527599087384        2.72063359356733
H           -4.95174086942554        1.80628092603735        1.95985878634323
H           -5.39816832301208        3.51199715796224        2.06568546822317
H           -2.64531903475581        4.70375560185870        1.28454078059648
H           -3.01394880228283        4.80498613361246       -0.44398758246876
H           -4.24354601564352        5.21024426577525        0.74840853643680
H           -0.71366622553370        2.83239115315447        2.83494481065260
72
 energy: 3.803941213800 xtb: 6.6.1 (8d0f1dd)
N           -1.61596308926499        2.88302552676413        2.32975008746842
C           -1.63089250759652        2.16757461972637        1.29566338254532
C           -2.77917064109076        2.07057534679337        0.32804177233536
C           -3.36244262911287        0.67098117991707        0.40453253877936
C           -4.29255743059060        0.25075819897222       -0.54570495062273
C           -4.83023873930236       -1.02076904478551       -0.51297899712708
O           -5.73733035183818       -1.51706445212245       -1.40196939686112
C           -6.23195003342150       -0.65306894920447       -2.38864289944437
C           -4.44587743000312       -1.92080335889955        0.50137057062606
O           -5.03938014932885       -3.14919472462516        0.44697763394992
C           -4.75764070585935       -4.06715569829451        1.46994094885566
C           -3.53017840457106       -1.50051920107752        1.44494507069759
C           -2.99383158150862       -0.21947971302880        1.39219320309853
C           -2.17340457576551        2.26171896583206       -1.07791840544389
C           -1.37916681030311        1.03551042294233       -1.56175751690117
C           -0.08947269377136        0.99582753505664       -0.75246587966252
N            0.66020887305346       -0.15051237883782       -0.54314144620040
C            2.03662770877202       -0.10680122848422       -0.17582061695833
C            2.97864440268317       -0.52523946499779       -1.32790783253649
C            4.40255568238965       -0.42119941359309       -0.88510366634099
C            5.12312675093682        0.74396973653452       -1.07661935200185
C            6.43415589131101        0.85189270344457       -0.63253828490225
C            7.04280642623845       -0.20539178107400        0.02023937799205
O            8.32043484313959       -0.21379159030108        0.50030111487320
C            9.11127097223830        0.92975029737874        0.30771874437787
C            6.31320653127214       -1.39713139765353        0.22992127987764
O            6.99544949401215       -2.38687408918838        0.87608703484387
C            6.34973542140134       -3.61421176305294        1.09244604180496
C            5.00892386292987       -1.48628092326277       -0.21839506607093
C            0.01059110672968       -1.40436609379919       -0.73213967968495
C           -3.90530736421361        3.10188895605780        0.57761508825725
C           -4.59419035381876        2.83904297450550        1.91274893287709
C           -3.41682430002898        4.54814898801874        0.52881818866680
H           -4.59058320429457        0.93318981306408       -1.32500662240727
H           -6.70412023099917        0.23227649769190       -1.94949709335182
H           -6.97468192516301       -1.23464209794146       -2.93132401845409
H           -5.44412884874050       -0.33245785133402       -3.07755379557450
H           -5.03757725395597       -3.67374585948316        2.45241549604736
H           -5.35927545985894       -4.94723208518449        1.24720460535085
H           -3.69891653299791       -4.34640126946456        1.48592839127796
H           -3.22893511157540       -2.16058420098861        2.24190966423762
H           -2.29845284669548        0.08530234880576        2.15737792786214
H           -2.97109365972737        2.44118092547749       -1.79294307904619
H           -1.55371642003941        3.16472003873183       -1.06206716446977
H           -2.09389511381789        0.17405366485738       -1.78362017382216
H           -1.16923954588802        1.20252453172474       -2.60606954453581
H           -0.76309514798991        1.60364830584249        0.88412547977742
H            0.55072311038194        1.86876761845320       -0.72697247454011
H            2.19583171036759       -0.77991982575751        0.67586906951037
H            2.30823336417416        0.90078987199033        0.14123283967162
H            2.79417842387096        0.13457064811020       -2.17854939056209
H            2.74028508484754       -1.54757492853247       -1.62300445170450
H            4.67186424781010        1.58103309761448       -1.58963185039378
H            6.97394055481242        1.76945915236490       -0.80790576757147
H            8.68591647845125        1.80691423461620        0.80672537652259
H            9.25399736327466        1.15315599790527       -0.75570556099984
H           10.07396067486801        0.69444653678150        0.75735198073155
H            7.08294525867491       -4.24304011939974        1.59551298858964
H            5.46784587824008       -3.50297571158856        1.73386718198468
H            6.05381821772787       -4.08923967809396        0.15044072649060
H            4.44189904229562       -2.39200722064204       -0.07237365560780
H           -0.17063368414682       -1.60973516768396       -1.79538775866619
H           -0.95382723363368       -1.38628981140986       -0.22321927052381
H            0.63295852430913       -2.18555978769748       -0.30819436769973
H           -4.64847644184316        2.96945933830883       -0.21861128330691
H           -3.88626709193526        2.98613067083322        2.71826194027709
H           -4.97759365929715        1.82279169360019        1.95300220859899
H           -5.42376906096327        3.52984033112714        2.04509049563323
H           -2.66081779182064        4.71161202997175        1.28837222605502
H           -3.00551166200779        4.80149557425556       -0.44549792946142
H           -4.25029794911122        5.21924906587383        0.72834359254134
H           -0.75627103974156        2.85265204579860        2.87384927000960
72
 energy: 7.088713189278 xtb: 6.6.1 (8d0f1dd)
N           -1.64577037548584        2.90977535141008        2.35403407324241
C           -1.65099452553661        2.17480144601180        1.33238903316705
C           -2.78792208837465        2.07371703428862        0.34970822987409
C           -3.37485424009681        0.67628460478349        0.42537283943666
C           -4.28979047386094        0.25108872997441       -0.53703996299019
C           -4.82640271072544       -1.02099750539852       -0.50760251695078
O           -5.71737184878531       -1.52309854288491       -1.41056630669259
C           -6.18945635061051       -0.66326440932666       -2.41162152120568
C           -4.45949440831628       -1.91596984917558        0.51704799724752
O           -5.05207824282309       -3.14542946244985        0.45740373032152
C           -4.78117587335526       -4.06070517356194        1.48544192573905
C           -3.55924616390104       -1.49049902673075        1.47306065552156
C           -3.02176962456460       -0.20985101419590        1.42186752974700
C           -2.16643594039827        2.25351694744129       -1.04927826536902
C           -1.40646309511468        1.00276916444873       -1.52409455842889
C           -0.10398170615454        0.95677027562557       -0.72455876569228
N            0.66726777861507       -0.18077198247604       -0.53180718104997
C            2.04679230571243       -0.12778701706345       -0.17934438030631
C            2.98939240039821       -0.52110995292613       -1.34100441663816
C            4.41324514060724       -0.41802268516854       -0.89841436405673