      -----------------------------------------------------------      
     |                   =====================                   |     
     |                           x T B                           |     
     |                   =====================                   |     
     |                         S. Grimme                         |     
     |          Mulliken Center for Theoretical Chemistry        |     
     |                    University of Bonn                     |     
      -----------------------------------------------------------      

   * xtb version 6.6.1 (8d0f1dd) compiled by 'conda@1efc2f54142f' on 2023-08-01

   xtb is free software: you can redistribute it and/or modify it under
   the terms of the GNU Lesser General Public License as published by
   the Free Software Foundation, either version 3 of the License, or
   (at your option) any later version.
   
   xtb is distributed in the hope that it will be useful,
   but WITHOUT ANY WARRANTY; without even the implied warranty of
   MERCHANTABILITY or FITNESS FOR A PARTICULAR PURPOSE.  See the
   GNU Lesser General Public License for more details.
   
   Cite this work as:
   * C. Bannwarth, E. Caldeweyher, S. Ehlert, A. Hansen, P. Pracht,
     J. Seibert, S. Spicher, S. Grimme, WIREs Comput. Mol. Sci., 2020, 11,
     e01493. DOI: 10.1002/wcms.1493
   
   for GFN2-xTB:
   * C. Bannwarth, S. Ehlert and S. Grimme., J. Chem. Theory Comput., 2019,
     15, 1652-1671. DOI: 10.1021/acs.jctc.8b01176
   for GFN1-xTB:
   * S. Grimme, C. Bannwarth, P. Shushkov, J. Chem. Theory Comput., 2017,
     13, 1989-2009. DOI: 10.1021/acs.jctc.7b00118
   for GFN0-xTB:
   * P. Pracht, E. Caldeweyher, S. Ehlert, S. Grimme, ChemRxiv, 2019, preprint.
     DOI: 10.26434/chemrxiv.8326202.v1
   for GFN-FF:
   * S. Spicher and S. Grimme, Angew. Chem. Int. Ed., 2020, 59, 15665-15673.
     DOI: 10.1002/anie.202004239
   
   for ALPB and GBSA implicit solvation:
   * S. Ehlert, M. Stahn, S. Spicher, S. Grimme, J. Chem. Theory Comput.,
     2021, 17, 4250-4261. DOI: 10.1021/acs.jctc.1c00471
   
   for DFT-D4:
   * E. Caldeweyher, C. Bannwarth and S. Grimme, J. Chem. Phys., 2017,
     147, 034112. DOI: 10.1063/1.4993215
   * E. Caldeweyher, S. Ehlert, A. Hansen, H. Neugebauer, S. Spicher,
     C. Bannwarth and S. Grimme, J. Chem. Phys., 2019, 150, 154122.
     DOI: 10.1063/1.5090222
   * E. Caldeweyher, J.-M. Mewes, S. Ehlert and S. Grimme, Phys. Chem. Chem. Phys.
     2020, 22, 8499-8512. DOI: 10.1039/D0CP00502A
   
   for sTDA-xTB:
   * S. Grimme and C. Bannwarth, J. Chem. Phys., 2016, 145, 054103.
     DOI: 10.1063/1.4959605
   
   in the mass-spec context:
   * V. Asgeirsson, C. Bauer and S. Grimme, Chem. Sci., 2017, 8, 4879.
     DOI: 10.1039/c7sc00601b
   * J. Koopman and S. Grimme, ACS Omega 2019, 4, 12, 15120-15133.
     DOI: 10.1021/acsomega.9b02011
   
   for metadynamics refer to:
   * S. Grimme, J. Chem. Theory Comput., 2019, 155, 2847-2862
     DOI: 10.1021/acs.jctc.9b00143
   
   for SPH calculations refer to:
   * S. Spicher and S. Grimme, J. Chem. Theory Comput., 2021, 17, 1701-1714
     DOI: 10.1021/acs.jctc.0c01306
   
   with help from (in alphabetical order)
   P. Atkinson, C. Bannwarth, F. Bohle, G. Brandenburg, E. Caldeweyher
   M. Checinski, S. Dohm, S. Ehlert, S. Ehrlich, I. Gerasimov, C. Hölzer
   A. Katbashev, J. Koopman, C. Lavigne, S. Lehtola, F. März, M. Müller,
   F. Musil, H. Neugebauer, J. Pisarek, C. Plett, P. Pracht, F. Pultar,
   J. Seibert, P. Shushkov, S. Spicher, M. Stahn, M. Steiner, T. Strunk,
   J. Stückrath, T. Rose, and J. Unsleber
   
 * started run on 2024/06/05 at 19:59:07.235     

           -------------------------------------------------
          |                Calculation Setup                |
           -------------------------------------------------

          program call               : xtb struc.xyz --opt loose --input .xc1 --gfn2
          hostname                   : n-62-29-35
          coordinate file            : struc.xyz
          omp threads                :                     1

   ID    Z sym.   atoms
    1    6 C      1, 3, 5-7, 10, 11, 14
    2    7 N      2, 4, 9, 13
    3    8 O      8, 12
    4    1 H      15-25
constraining bond 16 17 to    3.2800000 Å, actual value:    1.7840536 Å

           -------------------------------------------------
          |                 G F N 2 - x T B                 |
           -------------------------------------------------

        Reference                      10.1021/acs.jctc.8b01176
      * Hamiltonian:
        H0-scaling (s, p, d)           1.850000    2.230000    2.230000
        zeta-weighting                 0.500000
      * Dispersion:
        s8                             2.700000
        a1                             0.520000
        a2                             5.000000
        s9                             5.000000
      * Repulsion:
        kExp                           1.500000    1.000000
        rExp                           1.000000
      * Coulomb:
        alpha                          2.000000
        third order                    shell-resolved
        anisotropic                    true
        a3                             3.000000
        a5                             4.000000
        cn-shift                       1.200000
        cn-exp                         4.000000
        max-rad                        5.000000


          ...................................................
          :                      SETUP                      :
          :.................................................:
          :  # basis functions                  67          :
          :  # atomic orbitals                  67          :
          :  # shells                           39          :
          :  # electrons                        74          :
          :  max. iterations                   250          :
          :  Hamiltonian                  GFN2-xTB          :
          :  restarted?                      false          :
          :  GBSA solvation                  false          :
          :  PC potential                    false          :
          :  electronic temp.         5000.0000000     K    :
          :  accuracy                    1.0000000          :
          :  -> integral cutoff          0.2500000E+02      :
          :  -> integral neglect         0.1000000E-07      :
          :  -> SCF convergence          0.1000000E-05 Eh   :
          :  -> wf. convergence          0.1000000E-03 e    :
          :  Broyden damping             0.4000000          :
          ...................................................

 iter      E             dE          RMSdq      gap      omega  full diag
   1    -42.5894031 -0.425894E+02  0.445E+00    3.52       0.0  T
   2    -42.7683054 -0.178902E+00  0.251E+00    3.36       1.0  T
   3    -42.7759211 -0.761567E-02  0.147E+00    3.35       1.0  T
   4    -42.7728404  0.308066E-02  0.553E-01    3.33       1.0  T
   5    -42.7789548 -0.611444E-02  0.112E-01    3.35       1.0  T
   6    -42.7790473 -0.924914E-04  0.614E-02    3.33       1.0  T
   7    -42.7790721 -0.247928E-04  0.258E-02    3.34       1.0  T
   8    -42.7790772 -0.508996E-05  0.938E-03    3.34       2.1  T
   9    -42.7790779 -0.669422E-06  0.448E-03    3.34       4.5  T
  10    -42.7790780 -0.821511E-07  0.115E-03    3.34      17.4  T
  11    -42.7790780 -0.322662E-08  0.553E-04    3.34      36.2  T
  12    -42.7790780 -0.287052E-08  0.180E-04    3.34     111.1  T

   *** convergence criteria satisfied after 12 iterations ***

         #    Occupation            Energy/Eh            Energy/eV
      -------------------------------------------------------------
         1        2.0000           -0.9185990             -24.9964
       ...           ...                  ...                  ...
        31        1.9996           -0.6230278             -16.9534
        32        1.9995           -0.6194601             -16.8564
        33        1.9979           -0.5974976             -16.2587
        34        1.9932           -0.5789629             -15.7544
        35        1.9817           -0.5631863             -15.3251
        36        1.9779           -0.5602245             -15.2445
        37        1.9748           -0.5581234             -15.1873 (HOMO)
        38        0.0652           -0.4353579             -11.8467 (LUMO)
        39        0.0099           -0.4050467             -11.0219
        40        0.0013           -0.3732218             -10.1559
        41        0.0000           -0.2886859              -7.8555
        42                         -0.2065804              -5.6213
       ...                                ...                  ...
        67                          0.5625656              15.3082
      -------------------------------------------------------------
                  HL-Gap            0.1227656 Eh            3.3406 eV
             Fermi-level           -0.4890455 Eh          -13.3076 eV

 SCC (total)                   0 d,  0 h,  0 min,  0.036 sec
 SCC setup                      ...        0 min,  0.000 sec (  0.875%)
 Dispersion                     ...        0 min,  0.000 sec (  1.084%)
 classical contributions        ...        0 min,  0.000 sec (  0.301%)
 integral evaluation            ...        0 min,  0.006 sec ( 16.309%)
 iterations                     ...        0 min,  0.017 sec ( 48.810%)
 molecular gradient             ...        0 min,  0.012 sec ( 32.201%)
 printout                       ...        0 min,  0.000 sec (  0.384%)

         :::::::::::::::::::::::::::::::::::::::::::::::::::::
         ::                     SUMMARY                     ::
         :::::::::::::::::::::::::::::::::::::::::::::::::::::
         :: total energy             -38.252095360030 Eh    ::
         :: gradient norm              3.997794813023 Eh/a0 ::
         :: HOMO-LUMO gap              3.340621582928 eV    ::
         ::.................................................::
         :: SCC energy               -42.779077977399 Eh    ::
         :: -> isotropic ES            0.141123876439 Eh    ::
         :: -> anisotropic ES         -0.005230418907 Eh    ::
         :: -> anisotropic XC          0.011966818540 Eh    ::
         :: -> dispersion             -0.022657731803 Eh    ::
         :: repulsion energy           0.531105277918 Eh    ::
         :: add. restraining           3.995763180442 Eh    ::
         :: total charge               1.000000000002 e     ::
         :::::::::::::::::::::::::::::::::::::::::::::::::::::

      ----------------------------------------------------------- 
     |                   =====================                   |
     |                        A N C O P T                        |
     |                   =====================                   |
     |               Approximate Normal Coordinate               |
     |                Rational Function Optimizer                |
      ----------------------------------------------------------- 

          ...................................................
          :                      SETUP                      :
          :.................................................:
          :   optimization level             loose          :
          :   max. optcycles                   200          :
          :   ANC micro-cycles                  20          :
          :   degrees of freedom                69          :
          :.................................................:
          :   RF solver                   davidson          :
          :   write xtbopt.log                true          :
          :   linear?                        false          :
          :   energy convergence         0.5000000E-04 Eh   :
          :   grad. convergence          0.4000000E-02 Eh/α :
          :   maxmium RF displ.          1.0000000          :
          :   Hlow (freq-cutoff)         0.1000000E-01      :
          :   Hmax (freq-cutoff)         5.0000000          :
          :   S6 in model hess.         20.0000000          :
          ...................................................

generating ANC from model Hessian ...
Using Lindh-Hessian (1995)
 Shifting diagonal of input Hessian by    1.6081501065590336     
 Lowest  eigenvalues of input Hessian
    0.010000    0.079375    0.000000    0.000000    0.000000    0.000000
    0.000000    0.000000    1.611271    1.613057    1.613739    1.618576
    1.619125    1.620691    1.622269    1.626575    1.632720    1.637364
 Highest eigenvalues
    3.754126    3.832722    3.892362    3.978335    4.025858    4.150233


........................................................................
.............................. CYCLE    1 ..............................
........................................................................

 iter      E             dE          RMSdq      gap      omega  full diag
   1    -42.7790780 -0.427791E+02  0.626E-05    3.34       0.0  T
   2    -42.7790780 -0.124203E-10  0.329E-05    3.34     607.4  T
   3    -42.7790780  0.106581E-12  0.193E-05    3.34    1034.2  T
     SCC iter.                  ...        0 min,  0.005 sec
     gradient                   ...        0 min,  0.011 sec
 * total energy  :   -38.2520954 Eh     change       -0.6650680E-10 Eh
   gradient norm :     3.9977948 Eh/α   predicted     0.0000000E+00 (-100.00%)
   displ. norm   :     0.6255083 α      lambda       -0.2481762E+01
   maximum displ.:     0.5890799 α      in ANC's #67, #68, #51, ...

........................................................................
.............................. CYCLE    2 ..............................
........................................................................

 iter      E             dE          RMSdq      gap      omega  full diag
   1    -42.7163499 -0.427163E+02  0.592E-01    3.30       0.0  T
   2    -42.7166210 -0.271103E-03  0.338E-01    3.33       1.0  T
   3    -42.7165492  0.717738E-04  0.962E-02    3.32       1.0  T
   4    -42.7166461 -0.968436E-04  0.290E-02    3.34       1.0  T
   5    -42.7166614 -0.153574E-04  0.116E-02    3.33       1.7  T
   6    -42.7166619 -0.466962E-06  0.471E-03    3.33       4.2  T
   7    -42.7166621 -0.171057E-06  0.140E-03    3.33      14.3  T
   8    -42.7166621 -0.448070E-08  0.472E-04    3.33      42.4  T
   9    -42.7166621 -0.354126E-08  0.147E-04    3.33     135.8  T
     SCC iter.                  ...        0 min,  0.013 sec
     gradient                   ...        0 min,  0.011 sec
 * total energy  :   -40.3248628 Eh     change       -0.2072767E+01 Eh
   gradient norm :     2.6556751 Eh/α   predicted    -0.1736780E+01 ( -16.21%)
   displ. norm   :     0.6754271 α      lambda       -0.1791559E+01
   maximum displ.:     0.6355276 α      in ANC's #67, #68, #51, ...

........................................................................
.............................. CYCLE    3 ..............................
........................................................................

 iter      E             dE          RMSdq      gap      omega  full diag
   1    -42.6366961 -0.426367E+02  0.480E-01    3.17       0.0  T
   2    -42.6371084 -0.412283E-03  0.286E-01    3.23       1.0  T
   3    -42.6369249  0.183509E-03  0.125E-01    3.19       1.0  T
   4    -42.6371692 -0.244352E-03  0.362E-02    3.22       1.0  T
   5    -42.6371877 -0.185322E-04  0.124E-02    3.21       1.6  T
   6    -42.6371888 -0.109139E-05  0.511E-03    3.21       3.9  T
   7    -42.6371890 -0.142245E-06  0.284E-03    3.21       7.0  T
   8    -42.6371890 -0.402429E-07  0.664E-04    3.21      30.1  T
   9    -42.6371890 -0.752222E-08  0.225E-04    3.21      89.0  T
     SCC iter.                  ...        0 min,  0.013 sec
     gradient                   ...        0 min,  0.011 sec
 * total energy  :   -41.6531926 Eh     change       -0.1328330E+01 Eh
   gradient norm :     1.2901155 Eh/α   predicted    -0.1304472E+01 (  -1.80%)
   displ. norm   :     0.4872497 α      lambda       -0.6279251E+00
   maximum displ.:     0.4600204 α      in ANC's #67, #68, #51, ...

........................................................................
.............................. CYCLE    4 ..............................
........................................................................

 iter      E             dE          RMSdq      gap      omega  full diag
   1    -42.5809333 -0.425809E+02  0.332E-01    2.78       0.0  T
   2    -42.5820339 -0.110054E-02  0.231E-01    2.77       1.0  T
   3    -42.5824949 -0.461046E-03  0.106E-01    2.82       1.0  T
   4    -42.5825508 -0.558948E-04  0.688E-02    2.78       1.0  T
   5    -42.5825886 -0.378273E-04  0.211E-02    2.81       1.0  T
   6    -42.5825979 -0.921378E-05  0.799E-03    2.80       2.5  T
   7    -42.5825986 -0.697036E-06  0.322E-03    2.80       6.2  T
   8    -42.5825986 -0.363131E-07  0.127E-03    2.80      15.7  T
   9    -42.5825986 -0.120413E-07  0.333E-04    2.80      60.0  T
  10    -42.5825986 -0.493337E-09  0.152E-04    2.80     132.0  T
     SCC iter.                  ...        0 min,  0.014 sec
     gradient                   ...        0 min,  0.011 sec
 * total energy  :   -42.0468194 Eh     change       -0.3936268E+00 Eh
   gradient norm :     0.3315729 Eh/α   predicted    -0.3885012E+00 (  -1.30%)
   displ. norm   :     0.2060852 α      lambda       -0.5554824E-01
   maximum displ.:     0.1558168 α      in ANC's #67, #1, #2, ...

........................................................................
.............................. CYCLE    5 ..............................
........................................................................

 iter      E             dE          RMSdq      gap      omega  full diag
   1    -42.5659658 -0.425660E+02  0.222E-01    2.57       0.0  T
   2    -42.5663137 -0.347917E-03  0.153E-01    2.53       1.0  T
   3    -42.5666097 -0.296007E-03  0.761E-02    2.59       1.0  T
   4    -42.5666758 -0.660670E-04  0.416E-02    2.55       1.0  T
   5    -42.5666928 -0.169990E-04  0.153E-02    2.57       1.3  T
   6    -42.5666971 -0.429879E-05  0.397E-03    2.57       5.0  T
   7    -42.5666972 -0.166702E-06  0.170E-03    2.57      11.7  T
   8    -42.5666972 -0.225749E-07  0.734E-04    2.57      27.2  T
   9    -42.5666972 -0.206980E-08  0.220E-04    2.57      91.0  T
     SCC iter.                  ...        0 min,  0.013 sec
     gradient                   ...        0 min,  0.011 sec
 * total energy  :   -42.0763892 Eh     change       -0.2956984E-01 Eh
   gradient norm :     0.0468563 Eh/α   predicted    -0.2895450E-01 (  -2.08%)
   displ. norm   :     0.4681977 α      lambda       -0.4062369E-02
   maximum displ.:     0.4663675 α      in ANC's #1, #2, #67, ...

........................................................................
.............................. CYCLE    6 ..............................
........................................................................

 iter      E             dE          RMSdq      gap      omega  full diag
   1    -42.5624035 -0.425624E+02  0.463E-01    2.42       0.0  T
   2    -42.5628941 -0.490576E-03  0.323E-01    2.28       1.0  T
   3    -42.5635477 -0.653564E-03  0.208E-01    2.46       1.0  T
   4    -42.5641140 -0.566322E-03  0.738E-02    2.36       1.0  T
   5    -42.5642080 -0.940019E-04  0.216E-02    2.40       1.0  T
   6    -42.5642176 -0.961407E-05  0.539E-03    2.39       3.7  T
   7    -42.5642179 -0.300157E-06  0.267E-03    2.39       7.5  T
   8    -42.5642180 -0.656714E-07  0.126E-03    2.39      15.8  T
   9    -42.5642180 -0.571136E-08  0.358E-04    2.39      55.9  T
  10    -42.5642180 -0.155892E-08  0.125E-04    2.39     160.3  T
     SCC iter.                  ...        0 min,  0.014 sec
     gradient                   ...        0 min,  0.011 sec
 * total energy  :   -42.0771022 Eh     change       -0.7129593E-03 Eh
   gradient norm :     0.0963673 Eh/α   predicted    -0.2476490E-02 ( 247.35%)
   displ. norm   :     0.1808383 α      lambda       -0.4129077E-02
   maximum displ.:     0.1759629 α      in ANC's #1, #2, #67, ...

........................................................................
.............................. CYCLE    7 ..............................
........................................................................

 iter      E             dE          RMSdq      gap      omega  full diag
   1    -42.5667404 -0.425667E+02  0.188E-01    2.44       0.0  T
   2    -42.5669107 -0.170304E-03  0.130E-01    2.48       1.0  T
   3    -42.5670304 -0.119612E-03  0.779E-02    2.42       1.0  T
   4    -42.5670768 -0.464423E-04  0.368E-02    2.46       1.0  T
   5    -42.5671034 -0.265949E-04  0.858E-03    2.44       2.3  T
   6    -42.5671050 -0.161636E-05  0.222E-03    2.44       9.0  T
   7    -42.5671051 -0.369621E-07  0.127E-03    2.45      15.7  T
   8    -42.5671051 -0.141943E-07  0.465E-04    2.44      43.0  T
   9    -42.5671051 -0.803055E-09  0.160E-04    2.44     125.0  T
     SCC iter.                  ...        0 min,  0.013 sec
     gradient                   ...        0 min,  0.011 sec
 * total energy  :   -42.0794443 Eh     change       -0.2342096E-02 Eh
   gradient norm :     0.0451547 Eh/α   predicted    -0.2132402E-02 (  -8.95%)
   displ. norm   :     0.1081300 α      lambda       -0.2399945E-02
   maximum displ.:     0.0818919 α      in ANC's #2, #1, #68, ...

........................................................................
.............................. CYCLE    8 ..............................
........................................................................

 iter      E             dE          RMSdq      gap      omega  full diag
   1    -42.5685916 -0.425686E+02  0.103E-01    2.38       0.0  T
   2    -42.5686390 -0.474220E-04  0.506E-02    2.37       1.0  T
   3    -42.5686382  0.786117E-06  0.369E-02    2.40       1.0  T
   4    -42.5686561 -0.179190E-04  0.151E-02    2.38       1.3  T
   5    -42.5686602 -0.410476E-05  0.576E-03    2.39       3.5  T
   6    -42.5686607 -0.514815E-06  0.177E-03    2.39      11.3  T
   7    -42.5686608 -0.615252E-07  0.692E-04    2.39      28.9  T
   8    -42.5686608 -0.210445E-08  0.383E-04    2.39      52.2  T
     SCC iter.                  ...        0 min,  0.012 sec
     gradient                   ...        0 min,  0.011 sec
 * total energy  :   -42.0815646 Eh     change       -0.2120328E-02 Eh
   gradient norm :     0.0386615 Eh/α   predicted    -0.1214015E-02 ( -42.74%)
   displ. norm   :     0.4355631 α      lambda       -0.8319796E-02
   maximum displ.:     0.2782607 α      in ANC's #2, #1, #12, ...

........................................................................
.............................. CYCLE    9 ..............................
........................................................................

 iter      E             dE          RMSdq      gap      omega  full diag
   1    -42.5728773 -0.425729E+02  0.422E-01    2.10       0.0  T
   2    -42.5736943 -0.817031E-03  0.217E-01    2.06       1.0  T
   3    -42.5737213 -0.269962E-04  0.142E-01    2.16       1.0  T
   4    -42.5739261 -0.204741E-03  0.686E-02    2.08       1.0  T
   5    -42.5740341 -0.108089E-03  0.269E-02    2.13       1.0  T
   6    -42.5740442 -0.101002E-04  0.102E-02    2.12       2.0  T
   7    -42.5740467 -0.241183E-05  0.289E-03    2.12       6.9  T
   8    -42.5740467 -0.324022E-07  0.157E-03    2.12      12.7  T
   9    -42.5740467 -0.178530E-07  0.528E-04    2.12      37.9  T
  10    -42.5740467 -0.471900E-08  0.178E-04    2.12     112.1  T
     SCC iter.                  ...        0 min,  0.014 sec
     gradient                   ...        0 min,  0.011 sec
 * total energy  :   -42.0881386 Eh     change       -0.6573999E-02 Eh
   gradient norm :     0.0742725 Eh/α   predicted    -0.4949145E-02 ( -24.72%)
   displ. norm   :     0.5016539 α      lambda       -0.9844813E-02
   maximum displ.:     0.3200267 α      in ANC's #1, #2, #12, ...

........................................................................
.............................. CYCLE   10 ..............................
........................................................................

 iter      E             dE          RMSdq      gap      omega  full diag
   1    -42.5856699 -0.425857E+02  0.564E-01    1.76       0.0  T
   2    -42.5865208 -0.850927E-03  0.305E-01    1.84       1.0  T
   3    -42.5858168  0.704008E-03  0.271E-01    1.72       1.0  T
   4    -42.5869759 -0.115912E-02  0.117E-01    1.86       1.0  T
   5    -42.5873402 -0.364259E-03  0.303E-02    1.81       1.0  T
   6    -42.5873398  0.383401E-06  0.196E-02    1.82       1.0  T
   7    -42.5873492 -0.935708E-05  0.472E-03    1.81       4.2  T
   8    -42.5873493 -0.140944E-06  0.282E-03    1.81       7.1  T
   9    -42.5873494 -0.550740E-07  0.986E-04    1.81      20.3  T
  10    -42.5873494 -0.100384E-07  0.319E-04    1.81      62.7  T
     SCC iter.                  ...        0 min,  0.014 sec
     gradient                   ...        0 min,  0.011 sec
 * total energy  :   -42.0961696 Eh     change       -0.8030953E-02 Eh
   gradient norm :     0.1372944 Eh/α   predicted    -0.6161313E-02 ( -23.28%)
   displ. norm   :     0.5712454 α      lambda       -0.2047643E-01
   maximum displ.:     0.2273517 α      in ANC's #1, #12, #52, ...

........................................................................
.............................. CYCLE   11 ..............................
........................................................................

 iter      E             dE          RMSdq      gap      omega  full diag
   1    -42.6195974 -0.426196E+02  0.828E-01    1.45       0.0  T
   2    -42.6134257  0.617172E-02  0.683E-01    1.88       1.0  T
   3    -42.6211387 -0.771302E-02  0.466E-01    1.47       1.0  T
   4    -42.6251778 -0.403907E-02  0.119E-01    1.63       1.0  T
   5    -42.6254202 -0.242357E-03  0.354E-02    1.61       1.0  T
   6    -42.6254261 -0.589373E-05  0.180E-02    1.61       1.1  T
   7    -42.6254290 -0.291592E-05  0.837E-03    1.61       2.4  T
   8    -42.6254293 -0.296098E-06  0.393E-03    1.61       5.1  T
   9    -42.6254294 -0.181274E-06  0.164E-03    1.61      12.2  T
  10    -42.6254295 -0.288948E-07  0.766E-04    1.61      26.1  T
  11    -42.6254295 -0.385105E-08  0.296E-04    1.61      67.7  T
     SCC iter.                  ...        0 min,  0.015 sec
     gradient                   ...        0 min,  0.011 sec
 * total energy  :   -42.1082937 Eh     change       -0.1212418E-01 Eh
   gradient norm :     0.2092635 Eh/α   predicted    -0.1357916E-01 (  12.00%)
   displ. norm   :     0.2761148 α      lambda       -0.1869264E-01
   maximum displ.:     0.2107098 α      in ANC's #1, #2, #52, ...

........................................................................
.............................. CYCLE   12 ..............................
........................................................................

 iter      E             dE          RMSdq      gap      omega  full diag
   1    -42.6400657 -0.426401E+02  0.209E-01    1.55       0.0  T
   2    -42.6397788  0.286878E-03  0.169E-01    1.48       1.0  T
   3    -42.6400537 -0.274893E-03  0.119E-01    1.56       1.0  T
   4    -42.6403007 -0.247012E-03  0.398E-02    1.51       1.0  T
   5    -42.6403383 -0.375667E-04  0.124E-02    1.53       1.6  T
   6    -42.6403416 -0.334756E-05  0.395E-03    1.52       5.1  T
   7    -42.6403417 -0.127295E-06  0.213E-03    1.52       9.4  T
   8    -42.6403418 -0.528807E-07  0.463E-04    1.52      43.2  T
   9    -42.6403418 -0.174008E-08  0.222E-04    1.52      90.1  T
     SCC iter.                  ...        0 min,  0.013 sec
     gradient                   ...        0 min,  0.011 sec
 * total energy  :   -42.1197950 Eh     change       -0.1150125E-01 Eh
   gradient norm :     0.2323130 Eh/α   predicted    -0.1005903E-01 ( -12.54%)
   displ. norm   :     0.2333794 α      lambda       -0.3455103E-01
   maximum displ.:     0.1329799 α      in ANC's #2, #52, #68, ...

........................................................................
.............................. CYCLE   13 ..............................
........................................................................

 iter      E             dE          RMSdq      gap      omega  full diag
   1    -42.6580352 -0.426580E+02  0.325E-01    1.38       0.0  T
   2    -42.6582541 -0.218816E-03  0.226E-01    1.32       1.0  T
   3    -42.6582050  0.490855E-04  0.170E-01    1.42       1.0  T
   4    -42.6585312 -0.326261E-03  0.114E-01    1.30       1.0  T
   5    -42.6588215 -0.290211E-03  0.346E-02    1.37       1.0  T
   6    -42.6588527 -0.312342E-04  0.108E-02    1.35       1.8  T
   7    -42.6588539 -0.116602E-05  0.585E-03    1.35       3.4  T
   8    -42.6588542 -0.376855E-06  0.147E-03    1.35      13.6  T
   9    -42.6588542 -0.207606E-07  0.625E-04    1.35      32.0  T
  10    -42.6588542 -0.147131E-08  0.272E-04    1.35      73.4  T
     SCC iter.                  ...        0 min,  0.014 sec
     gradient                   ...        0 min,  0.011 sec
 * total energy  :   -42.1448409 Eh     change       -0.2504594E-01 Eh
   gradient norm :     0.1426114 Eh/α   predicted    -0.1821688E-01 ( -27.27%)
   displ. norm   :     0.3218213 α      lambda       -0.2422936E-01
   maximum displ.:     0.2183254 α      in ANC's #1, #68, #67, ...

........................................................................
.............................. CYCLE   14 ..............................
........................................................................

 iter      E             dE          RMSdq      gap      omega  full diag
   1    -42.6498574 -0.426499E+02  0.487E-01    1.44       0.0  T
   2    -42.6468383  0.301906E-02  0.482E-01    1.08       1.0  T
   3    -42.6512406 -0.440225E-02  0.264E-01    1.42       1.0  T
   4    -42.6526455 -0.140491E-02  0.116E-01    1.26       1.0  T
   5    -42.6528754 -0.229867E-03  0.325E-02    1.28       1.0  T
   6    -42.6528895 -0.141019E-04  0.127E-02    1.28       1.6  T
   7    -42.6528911 -0.163210E-05  0.693E-03    1.28       2.9  T
   8    -42.6528919 -0.767857E-06  0.284E-03    1.29       7.0  T
   9    -42.6528920 -0.863740E-07  0.825E-04    1.29      24.2  T
  10    -42.6528920 -0.201386E-08  0.408E-04    1.29      49.0  T
     SCC iter.                  ...        0 min,  0.014 sec
     gradient                   ...        0 min,  0.011 sec
 * total energy  :   -42.1540588 Eh     change       -0.9217886E-02 Eh
   gradient norm :     0.1172136 Eh/α   predicted    -0.1336984E-01 (  45.04%)
   displ. norm   :     0.3627853 α      lambda       -0.1964150E-01
   maximum displ.:     0.1880822 α      in ANC's #52, #12, #11, ...

........................................................................
.............................. CYCLE   15 ..............................
........................................................................

 iter      E             dE          RMSdq      gap      omega  full diag
   1    -42.6797019 -0.426797E+02  0.537E-01    1.02       0.0  T
   2    -42.6683973  0.113046E-01  0.739E-01    1.61       1.0  T
   3    -42.6837431 -0.153457E-01  0.213E-01    1.17       1.0  T
   4    -42.6838377 -0.946173E-04  0.778E-02    1.21       1.0  T
   5    -42.6839654 -0.127770E-03  0.227E-02    1.21       1.0  T
   6    -42.6839714 -0.594001E-05  0.112E-02    1.20       1.8  T
   7    -42.6839722 -0.852164E-06  0.672E-03    1.20       3.0  T
   8    -42.6839727 -0.497343E-06  0.181E-03    1.20      11.1  T
   9    -42.6839728 -0.194785E-07  0.887E-04    1.20      22.6  T
  10    -42.6839728 -0.846228E-08  0.296E-04    1.20      67.6  T
     SCC iter.                  ...        0 min,  0.014 sec
     gradient                   ...        0 min,  0.011 sec
 * total energy  :   -42.1532147 Eh     change        0.8441305E-03 Eh
   gradient norm :     0.1695695 Eh/α   predicted    -0.1111421E-01 (*******%)
   displ. norm   :     0.1817558 α      lambda       -0.2282360E-01
   maximum displ.:     0.0927276 α      in ANC's #52, #12, #11, ...

........................................................................
.............................. CYCLE   16 ..............................
........................................................................

 iter      E             dE          RMSdq      gap      omega  full diag
   1    -42.6686252 -0.426686E+02  0.217E-01    1.33       0.0  T
   2    -42.6677136  0.911674E-03  0.227E-01    1.17       1.0  T
   3    -42.6687363 -0.102273E-02  0.126E-01    1.31       1.0  T
   4    -42.6689331 -0.196838E-03  0.485E-02    1.27       1.0  T
   5    -42.6689862 -0.530957E-04  0.114E-02    1.27       1.8  T
   6    -42.6689874 -0.119425E-05  0.543E-03    1.27       3.7  T
   7    -42.6689875 -0.120407E-06  0.162E-03    1.27      12.3  T
   8    -42.6689876 -0.160635E-07  0.660E-04    1.27      30.3  T
   9    -42.6689876 -0.248784E-08  0.331E-04    1.27      60.5  T
     SCC iter.                  ...        0 min,  0.013 sec
     gradient                   ...        0 min,  0.011 sec
 * total energy  :   -42.1634145 Eh     change       -0.1019985E-01 Eh
   gradient norm :     0.0686231 Eh/α   predicted    -0.1178852E-01 (  15.58%)
   displ. norm   :     0.0437930 α      lambda       -0.2616330E-02
   maximum displ.:     0.0173599 α      in ANC's #2, #52, #67, ...

........................................................................
.............................. CYCLE   17 ..............................
........................................................................

 iter      E             dE          RMSdq      gap      omega  full diag
   1    -42.6718440 -0.426718E+02  0.103E-01    1.23       0.0  T
   2    -42.6713190  0.524964E-03  0.147E-01    1.34       1.0  T
   3    -42.6720091 -0.690114E-03  0.403E-02    1.25       1.0  T
   4    -42.6720267 -0.175749E-04  0.141E-02    1.27       1.4  T
   5    -42.6720310 -0.430201E-05  0.496E-03    1.27       4.0  T
   6    -42.6720312 -0.222807E-06  0.240E-03    1.27       8.3  T
   7    -42.6720313 -0.790017E-07  0.130E-03    1.27      15.4  T
   8    -42.6720313 -0.226199E-07  0.345E-04    1.27      57.9  T
   9    -42.6720313 -0.150067E-08  0.103E-04    1.27     194.2  T
     SCC iter.                  ...        0 min,  0.013 sec
     gradient                   ...        0 min,  0.011 sec
 * total energy  :   -42.1657640 Eh     change       -0.2349417E-02 Eh
   gradient norm :     0.0536859 Eh/α   predicted    -0.1311293E-02 ( -44.19%)
   displ. norm   :     0.2218325 α      lambda       -0.9689574E-02
   maximum displ.:     0.1090100 α      in ANC's #2, #52, #67, ...

........................................................................
.............................. CYCLE   18 ..............................
........................................................................

 iter      E             dE          RMSdq      gap      omega  full diag
   1    -42.6781934 -0.426782E+02  0.448E-01    1.12       0.0  T
   2    -42.6687856  0.940774E-02  0.644E-01    1.54       1.0  T
   3    -42.6815655 -0.127799E-01  0.158E-01    1.21       1.0  T
   4    -42.6817599 -0.194396E-03  0.462E-02    1.26       1.0  T
   5    -42.6818026 -0.426640E-04  0.171E-02    1.25       1.2  T
   6    -42.6818047 -0.206746E-05  0.969E-03    1.25       2.1  T
   7    -42.6818060 -0.135863E-05  0.436E-03    1.25       4.6  T
   8    -42.6818063 -0.277316E-06  0.136E-03    1.25      14.7  T
   9    -42.6818063 -0.260731E-07  0.377E-04    1.25      53.0  T
  10    -42.6818063 -0.422531E-09  0.209E-04    1.25      95.5  T
     SCC iter.                  ...        0 min,  0.014 sec
     gradient                   ...        0 min,  0.011 sec
 * total energy  :   -42.1710627 Eh     change       -0.5298752E-02 Eh
   gradient norm :     0.0452584 Eh/α   predicted    -0.5084127E-02 (  -4.05%)
   displ. norm   :     0.0633506 α      lambda       -0.1020087E-02
   maximum displ.:     0.0466349 α      in ANC's #2, #1, #30, ...

........................................................................
.............................. CYCLE   19 ..............................
........................................................................

 iter      E             dE          RMSdq      gap      omega  full diag
   1    -42.6829204 -0.426829E+02  0.899E-02    1.23       0.0  T
   2    -42.6826575  0.262912E-03  0.109E-01    1.29       1.0  T
   3    -42.6829828 -0.325325E-03  0.465E-02    1.23       1.0  T
   4    -42.6830126 -0.297383E-04  0.110E-02    1.25       1.8  T
   5    -42.6830143 -0.175950E-05  0.473E-03    1.24       4.2  T
   6    -42.6830146 -0.312386E-06  0.230E-03    1.25       8.7  T
   7    -42.6830147 -0.641356E-07  0.104E-03    1.24      19.2  T
   8    -42.6830147 -0.174572E-07  0.225E-04    1.24      89.0  T
   9    -42.6830147 -0.388582E-09  0.907E-05    1.24     220.5  T
     SCC iter.                  ...        0 min,  0.013 sec
     gradient                   ...        0 min,  0.011 sec
 * total energy  :   -42.1719129 Eh     change       -0.8502005E-03 Eh
   gradient norm :     0.0414947 Eh/α   predicted    -0.5120722E-03 ( -39.77%)
   displ. norm   :     0.1502702 α      lambda       -0.3195297E-02
   maximum displ.:     0.0679840 α      in ANC's #2, #51, #30, ...

........................................................................
.............................. CYCLE   20 ..............................
........................................................................

 iter      E             dE          RMSdq      gap      omega  full diag
   1    -42.6870803 -0.426871E+02  0.211E-01    1.21       0.0  T
   2    -42.6853799  0.170041E-02  0.288E-01    1.36       1.0  T
   3    -42.6877156 -0.233564E-02  0.852E-02    1.23       1.0  T
   4    -42.6877712 -0.556892E-04  0.371E-02    1.26       1.0  T
   5    -42.6877837 -0.124393E-04  0.162E-02    1.25       1.2  T
   6    -42.6877898 -0.607230E-05  0.563E-03    1.25       3.6  T
   7    -42.6877901 -0.364071E-06  0.193E-03    1.25      10.4  T
   8    -42.6877902 -0.527198E-07  0.494E-04    1.25      40.5  T
   9    -42.6877902 -0.165393E-08  0.201E-04    1.25      99.6  T
     SCC iter.                  ...        0 min,  0.013 sec
     gradient                   ...        0 min,  0.012 sec
 * total energy  :   -42.1741201 Eh     change       -0.2207214E-02 Eh
   gradient norm :     0.0310010 Eh/α   predicted    -0.1633100E-02 ( -26.01%)
   displ. norm   :     0.1109681 α      lambda       -0.1901140E-02
   maximum displ.:     0.0386575 α      in ANC's #51, #11, #12, ...
 * RMSD in coord.:     0.5244784 α      energy gain  -0.3922025E+01 Eh

generating ANC from model Hessian ...
Using Lindh-Hessian (1995)
 Shifting diagonal of input Hessian by    6.9258523391432809E-003
 Lowest  eigenvalues of input Hessian
    0.000000    0.000000    0.000000    0.000000    0.000000    0.000000
    0.010000    0.010836    0.012201    0.016795    0.017515    0.018557
    0.019824    0.024083    0.026225    0.029008    0.037823    0.040753
 Highest eigenvalues
    2.179242    2.230536    2.243567    2.305099    2.519081    2.606585


........................................................................
.............................. CYCLE   21 ..............................
........................................................................

 iter      E             dE          RMSdq      gap      omega  full diag
   1    -42.6926552 -0.426927E+02  0.145E-01    1.24       0.0  T
   2    -42.6920361  0.619062E-03  0.185E-01    1.33       1.0  T
   3    -42.6929253 -0.889185E-03  0.602E-02    1.25       1.0  T
   4    -42.6929580 -0.327422E-04  0.313E-02    1.28       1.0  T
   5    -42.6929645 -0.645612E-05  0.139E-02    1.26       1.4  T
   6    -42.6929699 -0.543691E-05  0.334E-03    1.27       6.0  T
   7    -42.6929700 -0.803277E-07  0.127E-03    1.27      15.7  T
   8    -42.6929701 -0.282067E-07  0.278E-04    1.27      72.0  T
   9    -42.6929701 -0.298428E-09  0.152E-04    1.27     131.2  T
     SCC iter.                  ...        0 min,  0.013 sec
     gradient                   ...        0 min,  0.011 sec
 * total energy  :   -42.1755127 Eh     change       -0.1392558E-02 Eh
   gradient norm :     0.0316777 Eh/α   predicted     0.0000000E+00 (-100.00%)
   displ. norm   :     0.4706435 α      lambda       -0.8613675E-02
   maximum displ.:     0.3375362 α      in ANC's #7, #12, #10, ...

........................................................................
.............................. CYCLE   22 ..............................
........................................................................

 iter      E             dE          RMSdq      gap      omega  full diag
   1    -42.6959645 -0.426960E+02  0.327E-01    1.32       0.0  T
   2    -42.6948233  0.114119E-02  0.260E-01    1.40       1.0  T
   3    -42.6956101 -0.786736E-03  0.235E-01    1.28       1.0  T
   4    -42.6964251 -0.815084E-03  0.717E-02    1.37       1.0  T
   5    -42.6965787 -0.153585E-03  0.106E-02    1.33       1.9  T
   6    -42.6965796 -0.917821E-06  0.628E-03    1.34       3.2  T
   7    -42.6965800 -0.395370E-06  0.249E-03    1.34       8.0  T
   8    -42.6965801 -0.832957E-07  0.666E-04    1.34      30.0  T
   9    -42.6965801 -0.564616E-08  0.219E-04    1.34      91.4  T
     SCC iter.                  ...        0 min,  0.013 sec
     gradient                   ...        0 min,  0.011 sec
 * total energy  :   -42.1824855 Eh     change       -0.6972801E-02 Eh
   gradient norm :     0.0213237 Eh/α   predicted    -0.5260856E-02 ( -24.55%)
   displ. norm   :     0.5998716 α      lambda       -0.7073111E-02
   maximum displ.:     0.4475430 α      in ANC's #7, #12, #10, ...

........................................................................
.............................. CYCLE   23 ..............................
........................................................................

 iter      E             dE          RMSdq      gap      omega  full diag
   1    -42.6959250 -0.426959E+02  0.429E-01    1.41       0.0  T
   2    -42.6939964  0.192863E-02  0.337E-01    1.50       1.0  T
   3    -42.6956026 -0.160627E-02  0.297E-01    1.37       1.0  T
   4    -42.6968355 -0.123291E-02  0.880E-02    1.46       1.0  T
   5    -42.6970513 -0.215741E-03  0.147E-02    1.42       1.4  T
   6    -42.6970542 -0.290171E-05  0.676E-03    1.42       3.0  T
   7    -42.6970545 -0.350849E-06  0.279E-03    1.42       7.2  T
   8    -42.6970546 -0.100723E-06  0.871E-04    1.42      23.0  T
   9    -42.6970546 -0.987558E-08  0.288E-04    1.43      69.5  T
     SCC iter.                  ...        0 min,  0.013 sec
     gradient                   ...        0 min,  0.011 sec
 * total energy  :   -42.1865424 Eh     change       -0.4056891E-02 Eh
   gradient norm :     0.0410016 Eh/α   predicted    -0.4809177E-02 (  18.54%)
   displ. norm   :     0.2420585 α      lambda       -0.2782440E-02
   maximum displ.:     0.1363414 α      in ANC's #7, #1, #12, ...

........................................................................
.............................. CYCLE   24 ..............................
........................................................................

 iter      E             dE          RMSdq      gap      omega  full diag
   1    -42.7038373 -0.427038E+02  0.101E-01    1.46       0.0  T
   2    -42.7037952  0.420257E-04  0.828E-02    1.46       1.0  T
   3    -42.7038477 -0.524359E-04  0.532E-02    1.45       1.0  T
   4    -42.7038701 -0.224193E-04  0.309E-02    1.47       1.0  T
   5    -42.7038931 -0.229918E-04  0.648E-03    1.45       3.1  T
   6    -42.7038936 -0.527415E-06  0.342E-03    1.46       5.8  T
   7    -42.7038937 -0.133905E-06  0.130E-03    1.46      15.4  T
   8    -42.7038938 -0.226475E-07  0.329E-04    1.46      60.9  T
   9    -42.7038938 -0.412619E-09  0.151E-04    1.46     132.4  T
     SCC iter.                  ...        0 min,  0.013 sec
     gradient                   ...        0 min,  0.011 sec
 * total energy  :   -42.1885276 Eh     change       -0.1985198E-02 Eh
   gradient norm :     0.0246972 Eh/α   predicted    -0.1472735E-02 ( -25.81%)
   displ. norm   :     0.2918322 α      lambda       -0.2131435E-02
   maximum displ.:     0.2057574 α      in ANC's #7, #1, #12, ...

........................................................................
.............................. CYCLE   25 ..............................
........................................................................

 iter      E             dE          RMSdq      gap      omega  full diag
   1    -42.7102757 -0.427103E+02  0.201E-01    1.49       0.0  T
   2    -42.7096322  0.643551E-03  0.203E-01    1.54       1.0  T
   3    -42.7106003 -0.968172E-03  0.956E-02    1.49       1.0  T
   4    -42.7106907 -0.903646E-04  0.383E-02    1.52       1.0  T
   5    -42.7107165 -0.257765E-04  0.106E-02    1.50       1.9  T
   6    -42.7107194 -0.293374E-05  0.286E-03    1.51       7.0  T
   7    -42.7107195 -0.723171E-07  0.133E-03    1.51      15.0  T
   8    -42.7107195 -0.219068E-07  0.287E-04    1.51      69.7  T
   9    -42.7107195 -0.333159E-09  0.146E-04    1.51     136.6  T
     SCC iter.                  ...        0 min,  0.013 sec
     gradient                   ...        0 min,  0.011 sec
 * total energy  :   -42.1900670 Eh     change       -0.1539443E-02 Eh
   gradient norm :     0.0173254 Eh/α   predicted    -0.1156481E-02 ( -24.88%)
   displ. norm   :     0.2176519 α      lambda       -0.1311939E-02
   maximum displ.:     0.1301792 α      in ANC's #7, #1, #9, ...

........................................................................
.............................. CYCLE   26 ..............................
........................................................................

 iter      E             dE          RMSdq      gap      omega  full diag
   1    -42.7157343 -0.427157E+02  0.191E-01    1.52       0.0  T
   2    -42.7151515  0.582745E-03  0.194E-01    1.58       1.0  T
   3    -42.7160530 -0.901467E-03  0.870E-02    1.52       1.0  T
   4    -42.7161285 -0.754582E-04  0.282E-02    1.55       1.0  T
   5    -42.7161401 -0.115980E-04  0.946E-03    1.53       2.1  T
   6    -42.7161424 -0.235916E-05  0.262E-03    1.54       7.6  T
   7    -42.7161425 -0.636626E-07  0.117E-03    1.54      17.1  T
   8    -42.7161425 -0.139653E-07  0.233E-04    1.54      85.7  T
   9    -42.7161425 -0.247525E-09  0.128E-04    1.54     156.5  T
     SCC iter.                  ...        0 min,  0.013 sec
     gradient                   ...        0 min,  0.011 sec
 * total energy  :   -42.1909489 Eh     change       -0.8819273E-03 Eh
   gradient norm :     0.0148748 Eh/α   predicted    -0.6870900E-03 ( -22.09%)
   displ. norm   :     0.1639242 α      lambda       -0.5632963E-03
   maximum displ.:     0.0766918 α      in ANC's #7, #2, #9, ...

........................................................................
.............................. CYCLE   27 ..............................
........................................................................

 iter      E             dE          RMSdq      gap      omega  full diag
   1    -42.7170021 -0.427170E+02  0.128E-01    1.53       0.0  T
   2    -42.7168005  0.201583E-03  0.115E-01    1.57       1.0  T
   3    -42.7170741 -0.273548E-03  0.688E-02    1.53       1.0  T
   4    -42.7171312 -0.571668E-04  0.117E-02    1.55       1.7  T
   5    -42.7171341 -0.282399E-05  0.382E-03    1.54       5.2  T
   6    -42.7171343 -0.273990E-06  0.140E-03    1.54      14.2  T
   7    -42.7171344 -0.118780E-07  0.563E-04    1.54      35.5  T
   8    -42.7171344 -0.402756E-08  0.165E-04    1.54     121.5  T
     SCC iter.                  ...        0 min,  0.012 sec
     gradient                   ...        0 min,  0.011 sec
 * total energy  :   -42.1913535 Eh     change       -0.4045248E-03 Eh
   gradient norm :     0.0168360 Eh/α   predicted    -0.2892167E-03 ( -28.50%)
   displ. norm   :     0.1463059 α      lambda       -0.6168874E-03
   maximum displ.:     0.0671631 α      in ANC's #8, #9, #1, ...

........................................................................
.............................. CYCLE   28 ..............................
........................................................................

 iter      E             dE          RMSdq      gap      omega  full diag
   1    -42.7192684 -0.427193E+02  0.113E-01    1.53       0.0  T
   2    -42.7191535  0.114883E-03  0.940E-02    1.56       1.0  T
   3    -42.7192892 -0.135743E-03  0.650E-02    1.53       1.0  T
   4    -42.7193447 -0.554425E-04  0.808E-03    1.54       2.5  T
   5    -42.7193459 -0.127682E-05  0.356E-03    1.54       5.6  T
   6    -42.7193460 -0.717232E-07  0.188E-03    1.54      10.6  T
   7    -42.7193461 -0.546240E-07  0.651E-04    1.54      30.7  T
   8    -42.7193461 -0.716298E-08  0.203E-04    1.54      98.5  T
     SCC iter.                  ...        0 min,  0.011 sec
     gradient                   ...        0 min,  0.011 sec
 * total energy  :   -42.1915777 Eh     change       -0.2242592E-03 Eh
   gradient norm :     0.0188274 Eh/α   predicted    -0.3150494E-03 (  40.48%)
   displ. norm   :     0.2271561 α      lambda       -0.6357279E-03
   maximum displ.:     0.1697297 α      in ANC's #2, #8, #7, ...

........................................................................
.............................. CYCLE   29 ..............................
........................................................................

 iter      E             dE          RMSdq      gap      omega  full diag
   1    -42.7159521 -0.427160E+02  0.136E-01    1.52       0.0  T
   2    -42.7158778  0.742473E-04  0.849E-02    1.55       1.0  T
   3    -42.7158437  0.341102E-04  0.100E-01    1.51       1.0  T
   4    -42.7160041 -0.160371E-03  0.677E-03    1.53       3.0  T
   5    -42.7160051 -0.100037E-05  0.343E-03    1.53       5.8  T
   6    -42.7160053 -0.171011E-06  0.176E-03    1.53      11.4  T
   7    -42.7160053 -0.107171E-07  0.949E-04    1.53      21.1  T
   8    -42.7160053 -0.168750E-07  0.190E-04    1.53     105.3  T
     SCC iter.                  ...        0 min,  0.012 sec
     gradient                   ...        0 min,  0.011 sec
 * total energy  :   -42.1917344 Eh     change       -0.1566837E-03 Eh
   gradient norm :     0.0208371 Eh/α   predicted    -0.3342820E-03 ( 113.35%)
   displ. norm   :     0.1149670 α      lambda       -0.3741003E-03
   maximum displ.:     0.0528873 α      in ANC's #1, #7, #2, ...

........................................................................
.............................. CYCLE   30 ..............................
........................................................................

 iter      E             dE          RMSdq      gap      omega  full diag
   1    -42.7177499 -0.427177E+02  0.722E-02    1.54       0.0  T
   2    -42.7177097  0.402059E-04  0.548E-02    1.52       1.0  T
   3    -42.7177446 -0.349327E-04  0.466E-02    1.54       1.0  T
   4    -42.7177755 -0.309109E-04  0.350E-03    1.54       5.7  T
   5    -42.7177758 -0.241555E-06  0.144E-03    1.53      13.9  T
   6    -42.7177758 -0.889732E-08  0.756E-04    1.53      26.5  T
   7    -42.7177758 -0.408629E-08  0.330E-04    1.53      60.5  T
     SCC iter.                  ...        0 min,  0.010 sec
     gradient                   ...        0 min,  0.012 sec
 * total energy  :   -42.1919383 Eh     change       -0.2039169E-03 Eh
   gradient norm :     0.0048393 Eh/α   predicted    -0.1895297E-03 (  -7.06%)
   displ. norm   :     0.0887117 α      lambda       -0.1233825E-03
   maximum displ.:     0.0624032 α      in ANC's #1, #4, #2, ...

........................................................................
.............................. CYCLE   31 ..............................
........................................................................

 iter      E             dE          RMSdq      gap      omega  full diag
   1    -42.7175676 -0.427176E+02  0.474E-02    1.54       0.0  T
   2    -42.7175647  0.295576E-05  0.284E-02    1.54       1.0  T
   3    -42.7175513  0.133984E-04  0.334E-02    1.53       1.0  T
   4    -42.7175701 -0.188810E-04  0.549E-03    1.54       3.6  T
   5    -42.7175710 -0.870038E-06  0.130E-03    1.54      15.4  T
   6    -42.7175710 -0.261623E-07  0.504E-04    1.54      39.7  T
   7    -42.7175710 -0.274824E-09  0.197E-04    1.54     101.7  T
     SCC iter.                  ...        0 min,  0.010 sec
     gradient                   ...        0 min,  0.011 sec
 * total energy  :   -42.1920132 Eh     change       -0.7486488E-04 Eh
   gradient norm :     0.0046197 Eh/α   predicted    -0.6218518E-04 ( -16.94%)
   displ. norm   :     0.2049098 α      lambda       -0.1926621E-03
   maximum displ.:     0.1278112 α      in ANC's #1, #2, #12, ...

........................................................................
.............................. CYCLE   32 ..............................
........................................................................

 iter      E             dE          RMSdq      gap      omega  full diag
   1    -42.7185430 -0.427185E+02  0.754E-02    1.54       0.0  T
   2    -42.7185431 -0.808284E-07  0.445E-02    1.53       1.0  T
   3    -42.7185145  0.286125E-04  0.381E-02    1.54       1.0  T
   4    -42.7185456 -0.311014E-04  0.697E-03    1.54       2.9  T
   5    -42.7185466 -0.989347E-06  0.233E-03    1.53       8.6  T
   6    -42.7185466 -0.551313E-07  0.149E-03    1.54      13.5  T
   7    -42.7185466 -0.244598E-07  0.306E-04    1.54      65.3  T
   8    -42.7185466 -0.774207E-09  0.159E-04    1.54     126.2  T
     SCC iter.                  ...        0 min,  0.012 sec
     gradient                   ...        0 min,  0.011 sec
 * total energy  :   -42.1920782 Eh     change       -0.6505301E-04 Eh
   gradient norm :     0.0046014 Eh/α   predicted    -0.1003864E-03 (  54.31%)
   displ. norm   :     0.0382815 α      lambda       -0.5882865E-04
   maximum displ.:     0.0229098 α      in ANC's #7, #12, #4, ...

........................................................................
.............................. CYCLE   33 ..............................
........................................................................

 iter      E             dE          RMSdq      gap      omega  full diag
   1    -42.7182050 -0.427182E+02  0.276E-02    1.54       0.0  T
   2    -42.7181999  0.512763E-05  0.204E-02    1.54       1.0  T
   3    -42.7182044 -0.458517E-05  0.177E-02    1.54       1.1  T
   4    -42.7182086 -0.413207E-05  0.307E-03    1.54       6.5  T
   5    -42.7182088 -0.200261E-06  0.105E-03    1.54      19.1  T
   6    -42.7182088 -0.238208E-07  0.337E-04    1.54      59.4  T
   7    -42.7182088 -0.489202E-09  0.131E-04    1.54     152.6  T
     SCC iter.                  ...        0 min,  0.010 sec
     gradient                   ...        0 min,  0.011 sec
 * total energy  :   -42.1921188 Eh     change       -0.4051043E-04 Eh
   gradient norm :     0.0023808 Eh/α   predicted    -0.2945806E-04 ( -27.28%)
   displ. norm   :     0.0552272 α      lambda       -0.3541129E-04
   maximum displ.:     0.0348662 α      in ANC's #1, #2, #7, ...

   *** GEOMETRY OPTIMIZATION CONVERGED AFTER 33 ITERATIONS ***

------------------------------------------------------------------------
 total energy gain   :        -3.9400234 Eh    -2472.4020 kcal/mol
 total RMSD          :         0.7260887 a0        0.3842 Å
 total power (kW/mol):      -313.4706059 (step)********** (real)
------------------------------------------------------------------------

 ANCopt (total)                0 d,  0 h,  0 min,  0.977 sec
 optimizer setup                ...        0 min,  0.000 sec (  0.046%)
 model hessian                  ...        0 min,  0.014 sec (  1.394%)
 ANC generation                 ...        0 min,  0.002 sec (  0.197%)
 coordinate transformation      ...        0 min,  0.000 sec (  0.029%)
 single point calculation       ...        0 min,  0.953 sec ( 97.569%)
 optimization log               ...        0 min,  0.003 sec (  0.283%)
 hessian update                 ...        0 min,  0.000 sec (  0.040%)
 rational function              ...        0 min,  0.003 sec (  0.300%)

================
 final structure:
================
25
 xtb: 6.6.1 (8d0f1dd)
C            3.28893985189792        0.92777843154076        0.08940717530254
N            2.37689859648916       -0.04126969244345        0.02375266412950
C            2.58813135506239       -1.36836563961487       -0.11767184456792
N            1.38840999540296       -2.03837387833972       -0.13180972968643
C            0.39735977838543       -1.14361042654550       -0.00076681000820
C            0.98938042430287        0.13133871269830        0.07159508845831
C            0.18799378365519        1.26547343579944        0.02759575020068
O            0.63516791468283        2.51066932746064       -0.07228754379173
N           -1.15859391858998        1.06449195940771        0.04711419975754
C           -2.07304865641603        2.19620754977922        0.01543915925667
C           -1.78194460356801       -0.19043812706619        0.07076684851357
O           -2.97435665955237       -0.29177835107412        0.10637525196767
N           -0.94549178563218       -1.31241426711064        0.03136375340259
C           -1.54195635947542       -2.63390326227821        0.01145411742537
H            3.06026072924836        1.88480093633425        0.51267270376860
H            4.31324166232188        0.67619699427055       -0.06501524524916
H            1.59956351544031        2.51701907892724       -0.22331768169975
H            3.54630151363248       -1.83075931305280       -0.20187710123846
H           -1.50254320105777        3.11889449924778        0.02351600432571
H           -2.68897061043193        2.14139896724317       -0.88197955547397
H           -2.73203915416645        2.15151607406383        0.88191613796791
H           -1.20894118203659       -3.21141966939774        0.87433279167516
H           -1.28300365781710       -3.15586141626594       -0.91027161926575
H           -2.62263009405162       -2.51001113894082        0.05967177722226
H            1.30230227637372       -3.03934224304300       -0.21080467449272

 Bond Distances (Angstroems)
 ---------------------------
C1-N2=1.3324         C1-H15=1.0711        C1-H16=1.0660        N2-C1=1.3324         N2-C3=1.3512         N2-C6=1.3990         
C3-N2=1.3512         C3-N4=1.3742         C3-H18=1.0672        N4-C3=1.3742         N4-C5=1.3416         N4-H25=1.0078        
C5-N4=1.3416         C5-C6=1.4076         C5-N13=1.3538        C6-N2=1.3990         C6-C5=1.4076         C6-C7=1.3894         
C7-C6=1.3894         C7-O8=1.3268         C7-N9=1.3616         O8-C7=1.3268         O8-H17=0.9762        N9-C7=1.3616         
N9-C10=1.4553        N9-C11=1.4014        C10-N9=1.4553        C10-H19=1.0848       C10-H20=1.0898       C10-H21=1.0895       
C11-N9=1.4014        C11-O12=1.1972       C11-N13=1.4000       O12-C11=1.1972       N13-C5=1.3538        N13-C11=1.4000       
N13-C14=1.4500       C14-N13=1.4500       C14-H22=1.0904       C14-H23=1.0904       C14-H24=1.0888       H15-C1=1.0711        
H16-C1=1.0660        H17-O8=0.9762        H18-C3=1.0672        H19-C10=1.0848       H20-C10=1.0898       H21-C10=1.0895       
H22-C14=1.0904       H23-C14=1.0904       H24-C14=1.0888       H25-N4=1.0078        
 C  H  Rav=1.0820 sigma=0.0100  Rmin=1.0660  Rmax=1.0904     9
 C  C  Rav=1.3985 sigma=0.0091  Rmin=1.3894  Rmax=1.4076     2
 N  H  Rav=1.0078 sigma=0.0000  Rmin=1.0078  Rmax=1.0078     1
 N  C  Rav=1.3837 sigma=0.0396  Rmin=1.3324  Rmax=1.4553    11
 O  H  Rav=0.9762 sigma=0.0000  Rmin=0.9762  Rmax=0.9762     1
 O  C  Rav=1.2620 sigma=0.0648  Rmin=1.1972  Rmax=1.3268     2

 selected bond angles (degree)
 --------------------
H15-C1-N2=121.54               H16-C1-N2=118.62               H16-C1-H15=118.25              C3-N2-C1=127.77                
C6-N2-C1=125.98                C6-N2-C3=106.25                N4-C3-N2=110.09                H18-C3-N2=125.04               
H18-C3-N4=124.87               C5-N4-C3=108.59                H25-N4-C3=124.03               H25-N4-C5=127.37               
C6-C5-N4=107.36                N13-C5-N4=130.68               N13-C5-C6=121.93               C5-C6-N2=107.68                
C7-C6-N2=132.20                C7-C6-C5=119.68                O8-C7-C6=125.03                N9-C7-C6=116.71                
N9-C7-O8=118.22                H17-O8-C7=110.53               C10-N9-C7=120.42               C11-N9-C7=124.91               
C11-N9-C10=114.66              H19-C10-N9=109.32              H20-C10-N9=109.51              H20-C10-H19=110.25             
H21-C10-N9=109.32              H21-C10-H19=110.31             H21-C10-H20=108.12             

 selected dihedral angles (degree)
 ---------------------------------
C3-N2-C1-H15=200.31           C3-N2-C1-H16=  5.66           C6-N2-C1-H15= 21.24           C6-N2-C1-H16=186.60           
N4-C3-N2-C1=179.51            N4-C3-N2-C6=358.72            H18-C3-N2-C1=359.76           H18-C3-N2-C6=178.97           
C5-N4-C3-N2=  0.07            C5-N4-C3-H18=179.82           H25-N4-C3-N2=181.15           H25-N4-C3-H18=  0.90          
C6-C5-N4-C3=  1.17            C6-C5-N4-H25=180.04           N13-C5-N4-C3=179.48           N13-C5-N4-H25=358.35          
C5-C6-N2-C1=181.20            C5-C6-N2-C3=  1.97            C7-C6-N2-C1=  9.15            C7-C6-N2-C3=189.92            
N2-C6-C5-N4=358.05            N2-C6-C5-N13=179.56           C7-C6-C5-N4=171.27            C7-C6-C5-N13=352.78           
O8-C7-C6-N2=359.70            O8-C7-C6-C5=188.43            N9-C7-C6-N2=177.54            N9-C7-C6-C5=  6.26            
H17-O8-C7-C6=  7.09           H17-O8-C7-N9=189.28           C10-N9-C7-C6=179.48           C10-N9-C7-O8=357.47           
C11-N9-C7-C6=358.16           C11-N9-C7-O8=176.15           H19-C10-N9-C7=357.43          H19-C10-N9-C11=178.62         
H20-C10-N9-C7=118.31          H20-C10-N9-C11=299.50         H21-C10-N9-C7=236.59          H21-C10-N9-C11= 57.78         
           -------------------------------------------------
          |                Final Singlepoint                |
           -------------------------------------------------

          ...................................................
          :                      SETUP                      :
          :.................................................:
          :  # basis functions                  67          :
          :  # atomic orbitals                  67          :
          :  # shells                           39          :
          :  # electrons                        74          :
          :  max. iterations                   250          :
          :  Hamiltonian                  GFN2-xTB          :
          :  restarted?                      false          :
          :  GBSA solvation                  false          :
          :  PC potential                    false          :
          :  electronic temp.         5000.0000000     K    :
          :  accuracy                    1.0000000          :
          :  -> integral cutoff          0.2500000E+02      :
          :  -> integral neglect         0.1000000E-07      :
          :  -> SCF convergence          0.1000000E-05 Eh   :
          :  -> wf. convergence          0.1000000E-03 e    :
          :  Broyden damping             0.4000000          :
          ...................................................

 iter      E             dE          RMSdq      gap      omega  full diag
   1    -42.7182088 -0.427182E+02  0.309E-05    1.54       0.0  T
   2    -42.7182088 -0.710543E-12  0.207E-05    1.54     966.6  T
   3    -42.7182088 -0.645173E-11  0.162E-05    1.54    1236.7  T

   *** convergence criteria satisfied after 3 iterations ***

         #    Occupation            Energy/Eh            Energy/eV
      -------------------------------------------------------------
         1        2.0000           -0.9014994             -24.5310
       ...           ...                  ...                  ...
        31        1.9999           -0.6159581             -16.7611
        32        1.9999           -0.6120310             -16.6542
        33        1.9998           -0.6089111             -16.5693
        34        1.9992           -0.5844262             -15.9030
        35        1.9987           -0.5763532             -15.6834
        36        1.9956           -0.5569991             -15.1567
        37        1.7038           -0.4879655             -13.2782 (HOMO)
        38        0.2786           -0.4314272             -11.7397 (LUMO)
        39        0.0209           -0.3882477             -10.5648
        40        0.0038           -0.3608719              -9.8198
        41        0.0001           -0.2935323              -7.9874
        42        0.0000           -0.2048468              -5.5742
       ...           ...                  ...                  ...
        67                          0.5363902              14.5959
      -------------------------------------------------------------
                  HL-Gap            0.0565384 Eh            1.5385 eV
             Fermi-level           -0.4602651 Eh          -12.5245 eV

 SCC (total)                   0 d,  0 h,  0 min,  0.021 sec
 SCC setup                      ...        0 min,  0.000 sec (  0.825%)
 Dispersion                     ...        0 min,  0.000 sec (  0.907%)
 classical contributions        ...        0 min,  0.000 sec (  0.314%)
 integral evaluation            ...        0 min,  0.004 sec ( 20.882%)
 iterations                     ...        0 min,  0.005 sec ( 22.521%)
 molecular gradient             ...        0 min,  0.011 sec ( 53.978%)
 printout                       ...        0 min,  0.000 sec (  0.514%)

         :::::::::::::::::::::::::::::::::::::::::::::::::::::
         ::                     SUMMARY                     ::
         :::::::::::::::::::::::::::::::::::::::::::::::::::::
         :: total energy             -42.192118750292 Eh    ::
         :: gradient norm              0.002383613971 Eh/a0 ::
         :: HOMO-LUMO gap              1.538487807512 eV    ::
         ::.................................................::
         :: SCC energy               -42.718208803684 Eh    ::
         :: -> isotropic ES            0.123797812424 Eh    ::
         :: -> anisotropic ES         -0.002865741496 Eh    ::
         :: -> anisotropic XC          0.011344669478 Eh    ::
         :: -> dispersion             -0.023074170074 Eh    ::
         :: repulsion energy           0.525952671094 Eh    ::
         :: add. restraining           0.000015500096 Eh    ::
         :: total charge               0.999999999998 e     ::
         :::::::::::::::::::::::::::::::::::::::::::::::::::::

           -------------------------------------------------
          |                Property Printout                |
           -------------------------------------------------

    * Orbital Energies and Occupations

         #    Occupation            Energy/Eh            Energy/eV
      -------------------------------------------------------------
         1        2.0000           -0.9014994             -24.5310
       ...           ...                  ...                  ...
        25        2.0000           -0.6701135             -18.2347
        26        2.0000           -0.6685127             -18.1912
        27        2.0000           -0.6576259             -17.8949
        28        2.0000           -0.6465924             -17.5947
        29        2.0000           -0.6392825             -17.3958
        30        1.9999           -0.6219089             -16.9230
        31        1.9999           -0.6159581             -16.7611
        32        1.9999           -0.6120310             -16.6542
        33        1.9998           -0.6089111             -16.5693
        34        1.9992           -0.5844262             -15.9030
        35        1.9987           -0.5763532             -15.6834
        36        1.9956           -0.5569991             -15.1567
        37        1.7038           -0.4879655             -13.2782 (HOMO)
        38        0.2786           -0.4314272             -11.7397 (LUMO)
        39        0.0209           -0.3882477             -10.5648
        40        0.0038           -0.3608719              -9.8198
        41        0.0001           -0.2935323              -7.9874
        42        0.0000           -0.2048468              -5.5742
        43                         -0.1717337              -4.6731
        44                         -0.1440326              -3.9193
        45                         -0.1300696              -3.5394
        46                         -0.1091138              -2.9691
        47                         -0.0676062              -1.8397
        48                         -0.0353250              -0.9612
       ...                                ...                  ...
        67                          0.5363902              14.5959
      -------------------------------------------------------------
                  HL-Gap            0.0565384 Eh            1.5385 eV
             Fermi-level           -0.4602651 Eh          -12.5245 eV

     #   Z          covCN         q      C6AA      α(0)
     1   6 C        2.789    -0.130    31.298     9.164
     2   7 N        2.795     0.103    19.465     6.553
     3   6 C        3.038    -0.004    28.079     8.691
     4   7 N        2.774    -0.062    22.447     7.037
     5   6 C        3.016     0.105    25.666     8.310
     6   6 C        3.106    -0.037    28.784     8.791
     7   6 C        2.775     0.202    23.711     7.975
     8   8 O        1.659    -0.328    19.502     5.962
     9   7 N        2.746    -0.048    22.166     6.992
    10   6 C        3.706    -0.070    21.987     6.703
    11   6 C        2.727     0.312    21.697     7.626
    12   8 O        0.859    -0.356    20.812     6.116
    13   7 N        2.737    -0.058    22.369     7.024
    14   6 C        3.698    -0.072    22.045     6.716
    15   1 H        0.926     0.071     2.076     2.253
    16   1 H        0.927     0.082     1.957     2.188
    17   1 H        0.804     0.352     0.583     1.199
    18   1 H        0.927     0.105     1.740     2.063
    19   1 H        0.925     0.110     1.700     2.039
    20   1 H        0.925     0.104     1.750     2.069
    21   1 H        0.925     0.108     1.718     2.050
    22   1 H        0.924     0.085     1.933     2.174
    23   1 H        0.924     0.083     1.946     2.181
    24   1 H        0.925     0.125     1.576     1.963
    25   1 H        0.860     0.219     1.014     1.578

 Mol. C6AA /au·bohr⁶  :       6647.568784
 Mol. C8AA /au·bohr⁸  :     153327.786220
 Mol. α(0) /au        :        125.416532


Wiberg/Mayer (AO) data.
largest (>0.10) Wiberg bond orders for each atom

 ---------------------------------------------------------------------------
     #   Z sym  total        # sym  WBO       # sym  WBO       # sym  WBO
 ---------------------------------------------------------------------------
     1   6 C    3.567 --     2 N    1.305    16 H    0.971    15 H    0.955
                             3 C    0.177
     2   7 N    3.721 --     1 C    1.305     3 C    1.249     6 C    1.071
     3   6 C    3.709 --     2 N    1.249     4 N    1.175    18 H    0.960
                             1 C    0.177
     4   7 N    3.556 --     5 C    1.260     3 C    1.175    25 H    0.924
     5   6 C    3.867 --     4 N    1.260     6 C    1.233    13 N    1.179
     6   6 C    3.906 --     7 C    1.295     5 C    1.233     2 N    1.071
     7   6 C    3.782 --     6 C    1.295     9 N    1.203     8 O    1.159
     8   8 O    2.178 --     7 C    1.159    17 H    0.826
     9   7 N    3.537 --     7 C    1.203    11 C    1.070    10 C    0.969
                            12 O    0.126
    10   6 C    3.916 --    19 H    0.971     9 N    0.969    20 H    0.964
                            21 H    0.963
    11   6 C    3.946 --    12 O    1.715    13 N    1.070     9 N    1.070
    12   8 O    2.068 --    11 C    1.715    13 N    0.135     9 N    0.126
    13   7 N    3.516 --     5 C    1.179    11 C    1.070    14 C    0.974
                            12 O    0.135
    14   6 C    3.926 --    13 N    0.974    22 H    0.970    23 H    0.970
                            24 H    0.965
    15   1 H    0.994 --     1 C    0.955
    16   1 H    0.992 --     1 C    0.971
    17   1 H    0.875 --     8 O    0.826
    18   1 H    0.988 --     3 C    0.960
    19   1 H    0.987 --    10 C    0.971
    20   1 H    0.984 --    10 C    0.964
    21   1 H    0.983 --    10 C    0.963
    22   1 H    0.989 --    14 C    0.970
    23   1 H    0.989 --    14 C    0.970
    24   1 H    0.984 --    14 C    0.965
    25   1 H    0.951 --     4 N    0.924
 ---------------------------------------------------------------------------

Topologies differ in total number of bonds
Writing topology from bond orders to xtbtopo.mol

molecular dipole:
                 x           y           z       tot (Debye)
 q only:        1.778      -0.781      -0.188
   full:        2.259      -1.070      -0.194       6.373
molecular quadrupole (traceless):
                xx          xy          yy          xz          yz          zz
 q only:        1.653      -3.602      15.480      -0.680       0.479     -17.134
  q+dip:       -0.488      -4.584      15.807      -0.519       1.200     -15.319
   full:       -1.330      -4.156      15.539      -0.408       0.953     -14.210

           -------------------------------------------------
          |                Geometry Summary                 |
           -------------------------------------------------

      molecular mass/u    :      195.1988581
   center of mass at/Å    :        0.0631185      -0.0418196       0.0102687
  moments of inertia/u·Å² :        0.4827218E+03   0.7046105E+03   0.1178712E+04
rotational constants/cm⁻¹ :        0.3492204E-01   0.2392475E-01   0.1430173E-01

 * 26 selected distances

     #   Z          #   Z                                           value/Å
     1   6 C        2   7 N                                       1.3323604
     2   7 N        3   6 C                                       1.3512232
     3   6 C        4   7 N                                       1.3742062
     4   7 N        5   6 C                                       1.3416239
     2   7 N        6   6 C                                       1.3990317
     5   6 C        6   6 C                                       1.4075583
     6   6 C        7   6 C                                       1.3893950
     7   6 C        8   8 O                                       1.3268212
     7   6 C        9   7 N                                       1.3616436
     9   7 N       10   6 C                                       1.4553389 (max)
     9   7 N       11   6 C                                       1.4014191
    11   6 C       12   8 O                                       1.1972404
     5   6 C       13   7 N                                       1.3538012
    11   6 C       13   7 N                                       1.4000131
    13   7 N       14   6 C                                       1.4500000
     1   6 C       15   1 H                                       1.0711396
     1   6 C       16   1 H                                       1.0659896
     8   8 O       17   1 H                                       0.9761708 (min)
     3   6 C       18   1 H                                       1.0672341
    10   6 C       19   1 H                                       1.0848471
    10   6 C       20   1 H                                       1.0898277
    10   6 C       21   1 H                                       1.0895175
    14   6 C       22   1 H                                       1.0904055
    14   6 C       23   1 H                                       1.0904473
    14   6 C       24   1 H                                       1.0888205
     4   7 N       25   1 H                                       1.0077661

 * 6 distinct bonds (by element types)

   Z      Z             #   av. dist./Å        max./Å        min./Å
   1 H    6 C           9     1.0820254     1.0904473     1.0659896
   6 C    6 C           2     1.3984766     1.4075583     1.3893950
   1 H    7 N           1     1.0077661     1.0077661     1.0077661
   6 C    7 N          11     1.3836965     1.4553389     1.3323604
   1 H    8 O           1     0.9761708     0.9761708     0.9761708
   6 C    8 O           2     1.2620308     1.3268212     1.1972404


optimized geometry written to: xtbopt.xyz


           -------------------------------------------------
          | TOTAL ENERGY              -42.192118750292 Eh   |
          | GRADIENT NORM               0.002383613971 Eh/α |
          | HOMO-LUMO GAP               1.538487807512 eV   |
           -------------------------------------------------

------------------------------------------------------------------------
 * finished run on 2024/06/05 at 19:59:08.314     
------------------------------------------------------------------------
 total:
 * wall-time:     0 d,  0 h,  0 min,  1.079 sec
 *  cpu-time:     0 d,  0 h,  0 min,  1.047 sec
 * ratio c/w:     0.971 speedup
 SCF:
 * wall-time:     0 d,  0 h,  0 min,  0.036 sec
 *  cpu-time:     0 d,  0 h,  0 min,  0.036 sec
 * ratio c/w:     1.000 speedup
 ANC optimizer:
 * wall-time:     0 d,  0 h,  0 min,  1.004 sec
 *  cpu-time:     0 d,  0 h,  0 min,  0.999 sec
 * ratio c/w:     0.995 speedup

