25
 energy: 26.053056651110 xtb: 6.6.1 (8d0f1dd)
C            3.20639522886020        1.52622701170921        0.15335248972791
N            2.43397163305074        0.02541465167613       -0.00764419828933
C            2.64888693302415       -1.39048213530472        0.14876711260318
N            1.43519015161083       -2.08402698816686        0.03338887599340
C            0.43144852030863       -1.19162395962061       -0.02789265058076
C            1.01980107645205        0.08057800439556       -0.02100338789754
C            0.21041179968802        1.22632471803882       -0.06236492930998
O            0.58470348693317        2.39788750000828       -0.16667505543192
N           -1.18719191649740        0.95454484670414       -0.03733743489902
C           -2.06010227621814        2.11327924351855       -0.02264672262422
C           -1.77945770999222       -0.26291153455511       -0.04569145932814
O           -2.98650786240923       -0.39480311979372       -0.04844048507240
N           -0.93130603515829       -1.39005076994739       -0.05376747051478
C           -1.60361347531000       -2.67158993903576       -0.06407207538735
H            3.63754903971875        1.81889234984342        1.10056871632109
H            3.96502187363028        1.63916445078504       -0.62424501431742
H            2.36467367122840        2.19761453767637       -0.03314224741618
H            3.55859369729889       -1.94235910994157        0.01512957389405
H           -1.40225642830480        2.97672413308675       -0.08465210721295
H           -2.76136753109814        2.04949678415833       -0.82925691830391
H           -2.57462668132266        2.15350482261310        0.92272468332930
H           -1.36133758678689       -3.25533779131551        0.82606601512934
H           -1.35493649322707       -3.23890325928290       -0.96259105142194
H           -2.67481821055780       -2.45566115398560       -0.06691857971208
H            1.33652382501629       -3.09369244040027        0.01705222892104
