      -----------------------------------------------------------      
     |                   =====================                   |     
     |                           x T B                           |     
     |                   =====================                   |     
     |                         S. Grimme                         |     
     |          Mulliken Center for Theoretical Chemistry        |     
     |                    University of Bonn                     |     
      -----------------------------------------------------------      

   * xtb version 6.6.1 (8d0f1dd) compiled by 'conda@1efc2f54142f' on 2023-08-01

   xtb is free software: you can redistribute it and/or modify it under
   the terms of the GNU Lesser General Public License as published by
   the Free Software Foundation, either version 3 of the License, or
   (at your option) any later version.
   
   xtb is distributed in the hope that it will be useful,
   but WITHOUT ANY WARRANTY; without even the implied warranty of
   MERCHANTABILITY or FITNESS FOR A PARTICULAR PURPOSE.  See the
   GNU Lesser General Public License for more details.
   
   Cite this work as:
   * C. Bannwarth, E. Caldeweyher, S. Ehlert, A. Hansen, P. Pracht,
     J. Seibert, S. Spicher, S. Grimme, WIREs Comput. Mol. Sci., 2020, 11,
     e01493. DOI: 10.1002/wcms.1493
   
   for GFN2-xTB:
   * C. Bannwarth, S. Ehlert and S. Grimme., J. Chem. Theory Comput., 2019,
     15, 1652-1671. DOI: 10.1021/acs.jctc.8b01176
   for GFN1-xTB:
   * S. Grimme, C. Bannwarth, P. Shushkov, J. Chem. Theory Comput., 2017,
     13, 1989-2009. DOI: 10.1021/acs.jctc.7b00118
   for GFN0-xTB:
   * P. Pracht, E. Caldeweyher, S. Ehlert, S. Grimme, ChemRxiv, 2019, preprint.
     DOI: 10.26434/chemrxiv.8326202.v1
   for GFN-FF:
   * S. Spicher and S. Grimme, Angew. Chem. Int. Ed., 2020, 59, 15665-15673.
     DOI: 10.1002/anie.202004239
   
   for ALPB and GBSA implicit solvation:
   * S. Ehlert, M. Stahn, S. Spicher, S. Grimme, J. Chem. Theory Comput.,
     2021, 17, 4250-4261. DOI: 10.1021/acs.jctc.1c00471
   
   for DFT-D4:
   * E. Caldeweyher, C. Bannwarth and S. Grimme, J. Chem. Phys., 2017,
     147, 034112. DOI: 10.1063/1.4993215
   * E. Caldeweyher, S. Ehlert, A. Hansen, H. Neugebauer, S. Spicher,
     C. Bannwarth and S. Grimme, J. Chem. Phys., 2019, 150, 154122.
     DOI: 10.1063/1.5090222
   * E. Caldeweyher, J.-M. Mewes, S. Ehlert and S. Grimme, Phys. Chem. Chem. Phys.
     2020, 22, 8499-8512. DOI: 10.1039/D0CP00502A
   
   for sTDA-xTB:
   * S. Grimme and C. Bannwarth, J. Chem. Phys., 2016, 145, 054103.
     DOI: 10.1063/1.4959605
   
   in the mass-spec context:
   * V. Asgeirsson, C. Bauer and S. Grimme, Chem. Sci., 2017, 8, 4879.
     DOI: 10.1039/c7sc00601b
   * J. Koopman and S. Grimme, ACS Omega 2019, 4, 12, 15120-15133.
     DOI: 10.1021/acsomega.9b02011
   
   for metadynamics refer to:
   * S. Grimme, J. Chem. Theory Comput., 2019, 155, 2847-2862
     DOI: 10.1021/acs.jctc.9b00143
   
   for SPH calculations refer to:
   * S. Spicher and S. Grimme, J. Chem. Theory Comput., 2021, 17, 1701-1714
     DOI: 10.1021/acs.jctc.0c01306
   
   with help from (in alphabetical order)
   P. Atkinson, C. Bannwarth, F. Bohle, G. Brandenburg, E. Caldeweyher
   M. Checinski, S. Dohm, S. Ehlert, S. Ehrlich, I. Gerasimov, C. Hölzer
   A. Katbashev, J. Koopman, C. Lavigne, S. Lehtola, F. März, M. Müller,
   F. Musil, H. Neugebauer, J. Pisarek, C. Plett, P. Pracht, F. Pultar,
   J. Seibert, P. Shushkov, S. Spicher, M. Stahn, M. Steiner, T. Strunk,
   J. Stückrath, T. Rose, and J. Unsleber
   
 * started run on 2024/06/05 at 19:58:40.851     

           -------------------------------------------------
          |                Calculation Setup                |
           -------------------------------------------------

          program call               : xtb struc.xyz --opt loose --input .xc1 --gfn2
          hostname                   : n-62-29-9
          coordinate file            : struc.xyz
          omp threads                :                     1

   ID    Z sym.   atoms
    1    6 C      1, 3, 5-7, 10, 11, 14
    2    7 N      2, 4, 9, 13
    3    8 O      8, 12
    4    1 H      15-25
constraining bond 2 13 to    5.8400000 Å, actual value:    3.5076258 Å

           -------------------------------------------------
          |                 G F N 2 - x T B                 |
           -------------------------------------------------

        Reference                      10.1021/acs.jctc.8b01176
      * Hamiltonian:
        H0-scaling (s, p, d)           1.850000    2.230000    2.230000
        zeta-weighting                 0.500000
      * Dispersion:
        s8                             2.700000
        a1                             0.520000
        a2                             5.000000
        s9                             5.000000
      * Repulsion:
        kExp                           1.500000    1.000000
        rExp                           1.000000
      * Coulomb:
        alpha                          2.000000
        third order                    shell-resolved
        anisotropic                    true
        a3                             3.000000
        a5                             4.000000
        cn-shift                       1.200000
        cn-exp                         4.000000
        max-rad                        5.000000


          ...................................................
          :                      SETUP                      :
          :.................................................:
          :  # basis functions                  67          :
          :  # atomic orbitals                  67          :
          :  # shells                           39          :
          :  # electrons                        74          :
          :  max. iterations                   250          :
          :  Hamiltonian                  GFN2-xTB          :
          :  restarted?                      false          :
          :  GBSA solvation                  false          :
          :  PC potential                    false          :
          :  electronic temp.         7500.0000000     K    :
          :  accuracy                    1.0000000          :
          :  -> integral cutoff          0.2500000E+02      :
          :  -> integral neglect         0.1000000E-07      :
          :  -> SCF convergence          0.1000000E-05 Eh   :
          :  -> wf. convergence          0.1000000E-03 e    :
          :  Broyden damping             0.4000000          :
          ...................................................

 iter      E             dE          RMSdq      gap      omega  full diag
   1    -42.5960780 -0.425961E+02  0.440E+00    3.52       0.0  T
   2    -42.7780033 -0.181925E+00  0.248E+00    3.37       1.0  T
   3    -42.7871777 -0.917437E-02  0.149E+00    3.50       1.0  T
   4    -42.7817164  0.546128E-02  0.642E-01    3.42       1.0  T
   5    -42.7911189 -0.940247E-02  0.115E-01    3.49       1.0  T
   6    -42.7912109 -0.920486E-04  0.685E-02    3.46       1.0  T
   7    -42.7912647 -0.537856E-04  0.265E-02    3.48       1.0  T
   8    -42.7912686 -0.385526E-05  0.113E-02    3.47       1.8  T
   9    -42.7912697 -0.111307E-05  0.441E-03    3.47       4.5  T
  10    -42.7912698 -0.733569E-07  0.139E-03    3.47      14.4  T
  11    -42.7912698 -0.243437E-08  0.602E-04    3.47      33.2  T
  12    -42.7912698 -0.222032E-08  0.181E-04    3.47     110.6  T

   *** convergence criteria satisfied after 12 iterations ***

         #    Occupation            Energy/Eh            Energy/eV
      -------------------------------------------------------------
         1        2.0000           -0.9116047             -24.8060
       ...           ...                  ...                  ...
        31        1.9942           -0.6212459             -16.9050
        32        1.9930           -0.6166804             -16.7807
        33        1.9876           -0.6031136             -16.4116
        34        1.9710           -0.5827317             -15.8569
        35        1.9403           -0.5651917             -15.3796
        36        1.9387           -0.5645672             -15.3627
        37        1.9155           -0.5566412             -15.1470 (HOMO)
        38        0.1907           -0.4290919             -11.6762 (LUMO)
        39        0.0640           -0.4015676             -10.9272
        40        0.0206           -0.3740689             -10.1789
        41        0.0006           -0.2879107              -7.8344
        42        0.0000           -0.2065811              -5.6214
       ...           ...                  ...                  ...
        67                          0.5613577              15.2753
      -------------------------------------------------------------
                  HL-Gap            0.1275493 Eh            3.4708 eV
             Fermi-level           -0.4825284 Eh          -13.1303 eV

 SCC (total)                   0 d,  0 h,  0 min,  0.040 sec
 SCC setup                      ...        0 min,  0.000 sec (  0.829%)
 Dispersion                     ...        0 min,  0.000 sec (  1.050%)
 classical contributions        ...        0 min,  0.000 sec (  0.296%)
 integral evaluation            ...        0 min,  0.007 sec ( 16.403%)
 iterations                     ...        0 min,  0.019 sec ( 48.620%)
 molecular gradient             ...        0 min,  0.013 sec ( 32.380%)
 printout                       ...        0 min,  0.000 sec (  0.388%)

         :::::::::::::::::::::::::::::::::::::::::::::::::::::
         ::                     SUMMARY                     ::
         :::::::::::::::::::::::::::::::::::::::::::::::::::::
         :: total energy             -32.546810785427 Eh    ::
         :: gradient norm              6.243873388011 Eh/a0 ::
         :: HOMO-LUMO gap              3.470793873671 eV    ::
         ::.................................................::
         :: SCC energy               -42.791269777655 Eh    ::
         :: -> isotropic ES            0.136760385929 Eh    ::
         :: -> anisotropic ES         -0.005341405309 Eh    ::
         :: -> anisotropic XC          0.011501049227 Eh    ::
         :: -> dispersion             -0.022650340738 Eh    ::
         :: repulsion energy           0.531105277918 Eh    ::
         :: add. restraining           9.713239555301 Eh    ::
         :: total charge               1.000000000010 e     ::
         :::::::::::::::::::::::::::::::::::::::::::::::::::::

      ----------------------------------------------------------- 
     |                   =====================                   |
     |                        A N C O P T                        |
     |                   =====================                   |
     |               Approximate Normal Coordinate               |
     |                Rational Function Optimizer                |
      ----------------------------------------------------------- 

          ...................................................
          :                      SETUP                      :
          :.................................................:
          :   optimization level             loose          :
          :   max. optcycles                   200          :
          :   ANC micro-cycles                  20          :
          :   degrees of freedom                69          :
          :.................................................:
          :   RF solver                   davidson          :
          :   write xtbopt.log                true          :
          :   linear?                        false          :
          :   energy convergence         0.5000000E-04 Eh   :
          :   grad. convergence          0.4000000E-02 Eh/α :
          :   maxmium RF displ.          1.0000000          :
          :   Hlow (freq-cutoff)         0.1000000E-01      :
          :   Hmax (freq-cutoff)         5.0000000          :
          :   S6 in model hess.         20.0000000          :
          ...................................................

generating ANC from model Hessian ...
Using Lindh-Hessian (1995)
 Shifting diagonal of input Hessian by    1.0633941171691292     
 Lowest  eigenvalues of input Hessian
    0.010000    0.587222    0.000000    0.000000    0.000000    0.000000
    0.000000    0.000000    1.066284    1.067725    1.069415    1.072544
    1.073183    1.075132    1.075264    1.078536    1.083835    1.089567
 Highest eigenvalues
    3.067062    3.282601    3.327602    3.445069    3.544199    4.634974


........................................................................
.............................. CYCLE    1 ..............................
........................................................................

 iter      E             dE          RMSdq      gap      omega  full diag
   1    -42.7912698 -0.427913E+02  0.838E-05    3.47       0.0  T
   2    -42.7912698 -0.247127E-10  0.452E-05    3.47     442.9  T
   3    -42.7912698 -0.149214E-11  0.279E-05    3.47     715.8  T
     SCC iter.                  ...        0 min,  0.005 sec
     gradient                   ...        0 min,  0.013 sec
 * total energy  :   -32.5468108 Eh     change       -0.2401990E-09 Eh
   gradient norm :     6.2438731 Eh/α   predicted     0.0000000E+00 (-100.00%)
   displ. norm   :     0.7204059 α      lambda       -0.4469253E+01
   maximum displ.:     0.6377534 α      in ANC's #69, #60, #50, ...

........................................................................
.............................. CYCLE    2 ..............................
........................................................................

 iter      E             dE          RMSdq      gap      omega  full diag
   1    -42.6606794 -0.426607E+02  0.101E+00    2.81       0.0  T
   2    -42.6645119 -0.383250E-02  0.742E-01    2.99       1.0  T
   3    -42.6684704 -0.395851E-02  0.367E-01    2.91       1.0  T
   4    -42.6691595 -0.689103E-03  0.100E-01    2.91       1.0  T
   5    -42.6693229 -0.163379E-03  0.456E-02    2.93       1.0  T
   6    -42.6693390 -0.161056E-04  0.201E-02    2.92       1.0  T
   7    -42.6693427 -0.368291E-05  0.456E-03    2.92       4.4  T
   8    -42.6693429 -0.174146E-06  0.175E-03    2.92      11.5  T
   9    -42.6693429 -0.178316E-07  0.769E-04    2.92      26.0  T
  10    -42.6693429 -0.475476E-08  0.307E-04    2.92      65.1  T
     SCC iter.                  ...        0 min,  0.016 sec
     gradient                   ...        0 min,  0.013 sec
 * total energy  :   -36.3508743 Eh     change       -0.3804064E+01 Eh
   gradient norm :     4.3822423 Eh/α   predicted    -0.3394640E+01 ( -10.76%)
   displ. norm   :     0.7577338 α      lambda       -0.3297539E+01
   maximum displ.:     0.6638492 α      in ANC's #69, #50, #60, ...

........................................................................
.............................. CYCLE    3 ..............................
........................................................................

 iter      E             dE          RMSdq      gap      omega  full diag
   1    -42.3433488 -0.423433E+02  0.150E+00    2.26       0.0  T
   2    -42.2947427  0.486061E-01  0.198E+00    2.55       1.0  T
   3    -42.4220969 -0.127354E+00  0.515E-01    2.75       1.0  T
   4    -42.4215001  0.596828E-03  0.248E-01    2.60       1.0  T
   5    -42.4226598 -0.115973E-02  0.981E-02    2.75       1.0  T
   6    -42.4229484 -0.288579E-03  0.462E-02    2.68       1.0  T
   7    -42.4229834 -0.350302E-04  0.262E-02    2.70       1.0  T
   8    -42.4229909 -0.745595E-05  0.125E-02    2.70       1.6  T
   9    -42.4229943 -0.343840E-05  0.337E-03    2.70       5.9  T
  10    -42.4229944 -0.657385E-07  0.198E-03    2.70      10.1  T
  11    -42.4229945 -0.694478E-07  0.929E-04    2.70      21.5  T
  12    -42.4229945 -0.120855E-07  0.352E-04    2.70      56.8  T
     SCC iter.                  ...        0 min,  0.019 sec
     gradient                   ...        0 min,  0.013 sec
 * total energy  :   -38.9863698 Eh     change       -0.2635495E+01 Eh
   gradient norm :     2.6859856 Eh/α   predicted    -0.2595428E+01 (  -1.52%)
   displ. norm   :     0.7697035 α      lambda       -0.2008355E+01
   maximum displ.:     0.5546651 α      in ANC's #69, #50, #2, ...

........................................................................
.............................. CYCLE    4 ..............................
........................................................................

 iter      E             dE          RMSdq      gap      omega  full diag
   1    -42.1801931 -0.421802E+02  0.127E+00    2.11       0.0  T
   2    -42.0870053  0.931878E-01  0.188E+00    1.17       1.0  T
   3    -42.2428289 -0.155824E+00  0.612E-01    1.83       1.0  T
   4    -42.2376469  0.518199E-02  0.521E-01    1.74       1.0  T
   5    -42.2420846 -0.443763E-02  0.365E-01    1.80       1.0  T
   6    -42.2463556 -0.427107E-02  0.810E-02    1.82       1.0  T
   7    -42.2463967 -0.410298E-04  0.569E-02    1.82       1.0  T
   8    -42.2464650 -0.682946E-04  0.273E-02    1.82       1.0  T
   9    -42.2464717 -0.676124E-05  0.159E-02    1.83       1.3  T
  10    -42.2464778 -0.605520E-05  0.587E-03    1.83       3.4  T
  11    -42.2464785 -0.691763E-06  0.284E-03    1.83       7.1  T
  12    -42.2464786 -0.101154E-06  0.765E-04    1.83      26.1  T
  13    -42.2464786 -0.671123E-08  0.272E-04    1.83      73.5  T
     SCC iter.                  ...        0 min,  0.020 sec
     gradient                   ...        0 min,  0.013 sec
 * total energy  :   -40.6280490 Eh     change       -0.1641679E+01 Eh
   gradient norm :     1.6775489 Eh/α   predicted    -0.1599096E+01 (  -2.59%)
   displ. norm   :     0.7140799 α      lambda       -0.1167954E+01
   maximum displ.:     0.5163369 α      in ANC's #69, #2, #50, ...

........................................................................
.............................. CYCLE    5 ..............................
........................................................................

 iter      E             dE          RMSdq      gap      omega  full diag
   1    -42.0858785 -0.420859E+02  0.154E+00    1.96       0.0  T
   2    -41.9083001  0.177578E+00  0.221E+00    0.52       1.0  T
   3    -42.1148640 -0.206564E+00  0.883E-01    1.90       1.0  T
   4    -42.1442572 -0.293932E-01  0.504E-01    1.54       1.0  T
   5    -42.1477155 -0.345833E-02  0.366E-01    1.54       1.0  T
   6    -42.1504143 -0.269882E-02  0.117E-01    1.59       1.0  T
   7    -42.1508200 -0.405676E-03  0.700E-02    1.61       1.0  T
   8    -42.1509418 -0.121840E-03  0.343E-02    1.61       1.0  T
   9    -42.1509912 -0.493378E-04  0.123E-02    1.63       1.6  T
  10    -42.1509923 -0.108394E-05  0.514E-03    1.62       3.9  T
  11    -42.1509929 -0.632225E-06  0.209E-03    1.62       9.6  T
  12    -42.1509930 -0.807565E-07  0.919E-04    1.62      21.8  T
  13    -42.1509930 -0.348137E-08  0.307E-04    1.62      65.1  T
     SCC iter.                  ...        0 min,  0.020 sec
     gradient                   ...        0 min,  0.012 sec
 * total energy  :   -41.4598613 Eh     change       -0.8318123E+00 Eh
   gradient norm :     0.6836484 Eh/α   predicted    -0.8817528E+00 (   6.00%)
   displ. norm   :     0.4582317 α      lambda       -0.3014438E+00
   maximum displ.:     0.2810681 α      in ANC's #69, #2, #50, ...

........................................................................
.............................. CYCLE    6 ..............................
........................................................................

 iter      E             dE          RMSdq      gap      omega  full diag
   1    -42.1039700 -0.421040E+02  0.964E-01    1.95       0.0  T
   2    -42.0278773  0.760927E-01  0.156E+00    1.16       1.0  T
   3    -42.1238316 -0.959543E-01  0.373E-01    1.85       1.0  T
   4    -42.1231450  0.686534E-03  0.393E-01    1.56       1.0  T
   5    -42.1287027 -0.555770E-02  0.199E-01    1.70       1.0  T
   6    -42.1298265 -0.112374E-02  0.602E-02    1.72       1.0  T
   7    -42.1298812 -0.546838E-04  0.337E-02    1.72       1.0  T
   8    -42.1299119 -0.307931E-04  0.140E-02    1.72       1.4  T
   9    -42.1299148 -0.290199E-05  0.737E-03    1.73       2.7  T
  10    -42.1299170 -0.213825E-05  0.257E-03    1.73       7.8  T
  11    -42.1299171 -0.127656E-06  0.136E-03    1.73      14.7  T
  12    -42.1299172 -0.441697E-07  0.543E-04    1.73      36.9  T
  13    -42.1299172 -0.271067E-08  0.253E-04    1.73      79.1  T
     SCC iter.                  ...        0 min,  0.020 sec
     gradient                   ...        0 min,  0.012 sec
 * total energy  :   -41.6406036 Eh     change       -0.1807423E+00 Eh
   gradient norm :     0.2772486 Eh/α   predicted    -0.1823709E+00 (   0.90%)
   displ. norm   :     0.2445950 α      lambda       -0.5615025E-01
   maximum displ.:     0.1373664 α      in ANC's #2, #35, #16, ...

........................................................................
.............................. CYCLE    7 ..............................
........................................................................

 iter      E             dE          RMSdq      gap      omega  full diag
   1    -42.1577835 -0.421578E+02  0.457E-01    1.70       0.0  T
   2    -42.1462886  0.114949E-01  0.678E-01    1.65       1.0  T
   3    -42.1637174 -0.174288E-01  0.161E-01    1.73       1.0  T
   4    -42.1629729  0.744508E-03  0.149E-01    1.80       1.0  T
   5    -42.1634341 -0.461209E-03  0.889E-02    1.69       1.0  T
   6    -42.1638116 -0.377482E-03  0.285E-02    1.76       1.0  T
   7    -42.1638381 -0.265210E-04  0.155E-02    1.73       1.3  T
   8    -42.1638447 -0.660838E-05  0.816E-03    1.75       2.5  T
   9    -42.1638473 -0.257525E-05  0.211E-03    1.74       9.5  T
  10    -42.1638473 -0.158811E-07  0.115E-03    1.74      17.4  T
  11    -42.1638473 -0.266919E-07  0.421E-04    1.74      47.5  T
  12    -42.1638473 -0.345970E-08  0.184E-04    1.74     109.0  T
     SCC iter.                  ...        0 min,  0.018 sec
     gradient                   ...        0 min,  0.011 sec
 * total energy  :   -41.6884877 Eh     change       -0.4788407E-01 Eh
   gradient norm :     0.2729963 Eh/α   predicted    -0.2975502E-01 ( -37.86%)
   displ. norm   :     0.5863457 α      lambda       -0.1198728E+00
   maximum displ.:     0.2671600 α      in ANC's #2, #35, #16, ...

........................................................................
.............................. CYCLE    8 ..............................
........................................................................

 iter      E             dE          RMSdq      gap      omega  full diag
   1    -42.2398421 -0.422398E+02  0.973E-01    1.10       0.0  T
   2    -42.1493237  0.905184E-01  0.157E+00    1.66       1.0  T
   3    -42.2725607 -0.123237E+00  0.428E-01    1.49       1.0  T
   4    -42.2660660  0.649473E-02  0.469E-01    1.75       1.0  T
   5    -42.2736071 -0.754110E-02  0.132E-01    1.52       1.0  T
   6    -42.2741323 -0.525246E-03  0.452E-02    1.56       1.0  T
   7    -42.2741683 -0.359743E-04  0.155E-02    1.55       1.3  T
   8    -42.2741683  0.286697E-08  0.747E-03    1.56       2.7  T
   9    -42.2741703 -0.198882E-05  0.514E-03    1.55       3.9  T
  10    -42.2741710 -0.761704E-06  0.181E-03    1.55      11.1  T
  11    -42.2741711 -0.338187E-07  0.603E-04    1.55      33.1  T
  12    -42.2741711 -0.336352E-08  0.362E-04    1.55      55.2  T
     SCC iter.                  ...        0 min,  0.017 sec
     gradient                   ...        0 min,  0.011 sec
 * total energy  :   -41.7816677 Eh     change       -0.9318000E-01 Eh
   gradient norm :     0.2367029 Eh/α   predicted    -0.8054286E-01 ( -13.56%)
   displ. norm   :     0.5375045 α      lambda       -0.7854817E-01
   maximum displ.:     0.2052703 α      in ANC's #16, #35, #21, ...

........................................................................
.............................. CYCLE    9 ..............................
........................................................................

 iter      E             dE          RMSdq      gap      omega  full diag
   1    -42.3417809 -0.423418E+02  0.845E-01    0.78       0.0  T
   2    -42.2544392  0.873417E-01  0.150E+00    1.70       1.0  T
   3    -42.3713409 -0.116902E+00  0.352E-01    1.40       1.0  T
   4    -42.3693106  0.203022E-02  0.319E-01    1.35       1.0  T
   5    -42.3719480 -0.263738E-02  0.941E-02    1.32       1.0  T
   6    -42.3721105 -0.162450E-03  0.449E-02    1.36       1.0  T
   7    -42.3721770 -0.665398E-04  0.174E-02    1.33       1.2  T
   8    -42.3721823 -0.524909E-05  0.798E-03    1.34       2.5  T
   9    -42.3721834 -0.112367E-05  0.254E-03    1.34       7.9  T
  10    -42.3721835 -0.106325E-06  0.124E-03    1.34      16.1  T
  11    -42.3721835 -0.232594E-07  0.421E-04    1.34      47.6  T
  12    -42.3721835 -0.153909E-08  0.274E-04    1.34      73.1  T
     SCC iter.                  ...        0 min,  0.017 sec
     gradient                   ...        0 min,  0.011 sec
 * total energy  :   -41.8358579 Eh     change       -0.5419021E-01 Eh
   gradient norm :     0.2501679 Eh/α   predicted    -0.5062134E-01 (  -6.59%)
   displ. norm   :     0.3799635 α      lambda       -0.4752580E-01
   maximum displ.:     0.1590807 α      in ANC's #16, #21, #35, ...

........................................................................
.............................. CYCLE   10 ..............................
........................................................................

 iter      E             dE          RMSdq      gap      omega  full diag
   1    -42.4118851 -0.424119E+02  0.615E-01    0.81       0.0  T
   2    -42.3735610  0.383241E-01  0.990E-01    1.40       1.0  T
   3    -42.4235312 -0.499702E-01  0.253E-01    1.09       1.0  T
   4    -42.4221403  0.139092E-02  0.233E-01    1.17       1.0  T
   5    -42.4238444 -0.170416E-02  0.577E-02    1.13       1.0  T
   6    -42.4239216 -0.771908E-04  0.166E-02    1.14       1.2  T
   7    -42.4239244 -0.274901E-05  0.114E-02    1.13       1.8  T
   8    -42.4239274 -0.306091E-05  0.341E-03    1.13       5.9  T
   9    -42.4239276 -0.183126E-06  0.127E-03    1.13      15.7  T
  10    -42.4239277 -0.545108E-07  0.521E-04    1.13      38.4  T
  11    -42.4239277 -0.306221E-08  0.223E-04    1.13      89.7  T
     SCC iter.                  ...        0 min,  0.016 sec
     gradient                   ...        0 min,  0.011 sec
 * total energy  :   -41.8755052 Eh     change       -0.3964728E-01 Eh
   gradient norm :     0.2487007 Eh/α   predicted    -0.2719364E-01 ( -31.41%)
   displ. norm   :     0.5209069 α      lambda       -0.7012883E-01
   maximum displ.:     0.2152334 α      in ANC's #21, #16, #25, ...

........................................................................
.............................. CYCLE   11 ..............................
........................................................................

 iter      E             dE          RMSdq      gap      omega  full diag
   1    -42.4594184 -0.424594E+02  0.780E-01    0.59       0.0  T
   2    -42.4302260  0.291924E-01  0.927E-01    1.04       1.0  T
   3    -42.4635070 -0.332810E-01  0.451E-01    0.60       1.0  T
   4    -42.4665472 -0.304026E-02  0.276E-01    0.95       1.0  T
   5    -42.4689390 -0.239174E-02  0.116E-01    0.82       1.0  T
   6    -42.4693153 -0.376354E-03  0.212E-02    0.83       1.0  T
   7    -42.4693216 -0.628628E-05  0.166E-02    0.83       1.2  T
   8    -42.4693267 -0.508753E-05  0.534E-03    0.83       3.7  T
   9    -42.4693273 -0.601155E-06  0.186E-03    0.83      10.8  T
  10    -42.4693273 -0.482994E-07  0.100E-03    0.83      20.0  T
  11    -42.4693274 -0.112723E-07  0.404E-04    0.83      49.5  T
  12    -42.4693274 -0.450812E-08  0.149E-04    0.83     133.8  T
     SCC iter.                  ...        0 min,  0.017 sec
     gradient                   ...        0 min,  0.011 sec
 * total energy  :   -41.9267357 Eh     change       -0.5123053E-01 Eh
   gradient norm :     0.1971668 Eh/α   predicted    -0.4457898E-01 ( -12.98%)
   displ. norm   :     0.4523909 α      lambda       -0.4132865E-01
   maximum displ.:     0.1846365 α      in ANC's #21, #16, #41, ...

........................................................................
.............................. CYCLE   12 ..............................
........................................................................

 iter      E             dE          RMSdq      gap      omega  full diag
   1    -42.4982999 -0.424983E+02  0.549E-01    0.52       0.0  T
   2    -42.4932360  0.506386E-02  0.458E-01    0.83       1.0  T
   3    -42.4915876  0.164844E-02  0.448E-01    0.34       1.0  T
   4    -42.4993982 -0.781062E-02  0.143E-01    0.71       1.0  T
   5    -42.5001185 -0.720282E-03  0.459E-02    0.64       1.0  T
   6    -42.5001794 -0.609359E-04  0.139E-02    0.63       1.4  T
   7    -42.5001834 -0.392802E-05  0.948E-03    0.64       2.1  T
   8    -42.5001850 -0.167389E-05  0.282E-03    0.63       7.1  T
   9    -42.5001852 -0.157711E-06  0.103E-03    0.63      19.4  T
  10    -42.5001852 -0.136135E-07  0.450E-04    0.64      44.5  T
  11    -42.5001852 -0.347305E-08  0.200E-04    0.63     100.2  T
     SCC iter.                  ...        0 min,  0.015 sec
     gradient                   ...        0 min,  0.011 sec
 * total energy  :   -41.9587868 Eh     change       -0.3205103E-01 Eh
   gradient norm :     0.1686824 Eh/α   predicted    -0.2489344E-01 ( -22.33%)
   displ. norm   :     0.4317459 α      lambda       -0.3569145E-01
   maximum displ.:     0.1764058 α      in ANC's #41, #21, #25, ...

........................................................................
.............................. CYCLE   13 ..............................
........................................................................

 iter      E             dE          RMSdq      gap      omega  full diag
   1    -42.5316741 -0.425317E+02  0.492E-01    0.44       0.0  T
   2    -42.5309609  0.713193E-03  0.360E-01    0.60       1.0  T
   3    -42.5298560  0.110488E-02  0.320E-01    0.33       1.0  T
   4    -42.5300260 -0.169981E-03  0.227E-01    0.66       1.0  T
   5    -42.5327859 -0.275993E-02  0.591E-02    0.47       1.0  T
   6    -42.5329248 -0.138820E-03  0.150E-02    0.49       1.3  T
   7    -42.5329303 -0.554976E-05  0.689E-03    0.49       2.9  T
   8    -42.5329309 -0.623947E-06  0.283E-03    0.49       7.1  T
   9    -42.5329310 -0.989372E-07  0.929E-04    0.49      21.5  T
  10    -42.5329310 -0.266304E-08  0.432E-04    0.49      46.3  T
     SCC iter.                  ...        0 min,  0.014 sec
     gradient                   ...        0 min,  0.011 sec
 * total energy  :   -41.9849182 Eh     change       -0.2613146E-01 Eh
   gradient norm :     0.1209337 Eh/α   predicted    -0.2117226E-01 ( -18.98%)
   displ. norm   :     0.3491498 α      lambda       -0.1967200E-01
   maximum displ.:     0.1455288 α      in ANC's #41, #21, #25, ...

........................................................................
.............................. CYCLE   14 ..............................
........................................................................

 iter      E             dE          RMSdq      gap      omega  full diag
   1    -42.5586493 -0.425586E+02  0.391E-01    0.39       0.0  T
   2    -42.5586819 -0.326402E-04  0.296E-01    0.47       1.0  T
   3    -42.5592360 -0.554113E-03  0.193E-01    0.34       1.0  T
   4    -42.5579142  0.132181E-02  0.200E-01    0.55       1.0  T
   5    -42.5598418 -0.192756E-02  0.512E-02    0.39       1.0  T
   6    -42.5599528 -0.111043E-03  0.158E-02    0.42       1.3  T
   7    -42.5599618 -0.904147E-05  0.483E-03    0.41       4.1  T
   8    -42.5599621 -0.232549E-06  0.240E-03    0.41       8.3  T
   9    -42.5599621 -0.717906E-07  0.918E-04    0.41      21.8  T
  10    -42.5599622 -0.829157E-08  0.441E-04    0.41      45.4  T
     SCC iter.                  ...        0 min,  0.014 sec
     gradient                   ...        0 min,  0.011 sec
 * total energy  :   -41.9984766 Eh     change       -0.1355837E-01 Eh
   gradient norm :     0.1025557 Eh/α   predicted    -0.1103523E-01 ( -18.61%)
   displ. norm   :     0.2485386 α      lambda       -0.1039550E-01
   maximum displ.:     0.0949366 α      in ANC's #41, #21, #35, ...

........................................................................
.............................. CYCLE   15 ..............................
........................................................................

 iter      E             dE          RMSdq      gap      omega  full diag
   1    -42.5770016 -0.425770E+02  0.258E-01    0.36       0.0  T
   2    -42.5769247  0.768802E-04  0.188E-01    0.45       1.0  T
   3    -42.5767792  0.145551E-03  0.152E-01    0.30       1.0  T
   4    -42.5767515  0.276289E-04  0.126E-01    0.47       1.0  T
   5    -42.5774639 -0.712309E-03  0.213E-02    0.38       1.0  T
   6    -42.5774783 -0.144181E-04  0.685E-03    0.39       2.9  T
   7    -42.5774798 -0.150370E-05  0.322E-03    0.38       6.2  T
   8    -42.5774800 -0.183498E-06  0.182E-03    0.38      11.0  T
   9    -42.5774800 -0.610596E-07  0.391E-04    0.38      51.1  T
  10    -42.5774800 -0.863409E-09  0.195E-04    0.38     102.8  T
     SCC iter.                  ...        0 min,  0.014 sec
     gradient                   ...        0 min,  0.011 sec
 * total energy  :   -42.0063064 Eh     change       -0.7829825E-02 Eh
   gradient norm :     0.0866404 Eh/α   predicted    -0.5518901E-02 ( -29.51%)
   displ. norm   :     0.2440535 α      lambda       -0.1061122E-01
   maximum displ.:     0.0912463 α      in ANC's #14, #13, #41, ...

........................................................................
.............................. CYCLE   16 ..............................
........................................................................

 iter      E             dE          RMSdq      gap      omega  full diag
   1    -42.5987907 -0.425988E+02  0.246E-01    0.33       0.0  T
   2    -42.5985730  0.217696E-03  0.181E-01    0.45       1.0  T
   3    -42.5980387  0.534347E-03  0.172E-01    0.25       1.0  T
   4    -42.5989079 -0.869249E-03  0.860E-02    0.42       1.0  T
   5    -42.5991508 -0.242845E-03  0.223E-02    0.37       1.0  T
   6    -42.5991664 -0.156581E-04  0.901E-03    0.37       2.2  T
   7    -42.5991683 -0.190717E-05  0.335E-03    0.37       6.0  T
   8    -42.5991683  0.298771E-07  0.189E-03    0.37      10.6  T
   9    -42.5991684 -0.151204E-06  0.547E-04    0.37      36.6  T
  10    -42.5991684 -0.276817E-08  0.256E-04    0.37      78.1  T
     SCC iter.                  ...        0 min,  0.014 sec
     gradient                   ...        0 min,  0.011 sec
 * total energy  :   -42.0136622 Eh     change       -0.7355783E-02 Eh
   gradient norm :     0.0719827 Eh/α   predicted    -0.5621840E-02 ( -23.57%)
   displ. norm   :     0.1834481 α      lambda       -0.6476415E-02
   maximum displ.:     0.0825743 α      in ANC's #13, #14, #16, ...

........................................................................
.............................. CYCLE   17 ..............................
........................................................................

 iter      E             dE          RMSdq      gap      omega  full diag
   1    -42.6156099 -0.426156E+02  0.184E-01    0.32       0.0  T
   2    -42.6154219  0.187989E-03  0.137E-01    0.41       1.0  T
   3    -42.6149223  0.499611E-03  0.140E-01    0.25       1.0  T
   4    -42.6156614 -0.739094E-03  0.499E-02    0.37       1.0  T
   5    -42.6157306 -0.692016E-04  0.206E-02    0.35       1.0  T
   6    -42.6157461 -0.155163E-04  0.433E-03    0.35       4.6  T
   7    -42.6157463 -0.172623E-06  0.201E-03    0.35      10.0  T
   8    -42.6157463 -0.294493E-07  0.559E-04    0.35      35.8  T
   9    -42.6157463 -0.101225E-08  0.345E-04    0.35      57.9  T
     SCC iter.                  ...        0 min,  0.013 sec
     gradient                   ...        0 min,  0.011 sec
 * total energy  :   -42.0185752 Eh     change       -0.4912955E-02 Eh
   gradient norm :     0.0832505 Eh/α   predicted    -0.3347253E-02 ( -31.87%)
   displ. norm   :     0.2541370 α      lambda       -0.8592287E-02
   maximum displ.:     0.1219554 α      in ANC's #13, #14, #16, ...

........................................................................
.............................. CYCLE   18 ..............................
........................................................................

 iter      E             dE          RMSdq      gap      omega  full diag
   1    -42.6303067 -0.426303E+02  0.249E-01    0.27       0.0  T
   2    -42.6298616  0.445151E-03  0.193E-01    0.40       1.0  T
   3    -42.6292771  0.584515E-03  0.178E-01    0.19       1.0  T
   4    -42.6304001 -0.112306E-02  0.745E-02    0.34       1.0  T
   5    -42.6305692 -0.169104E-03  0.201E-02    0.31       1.0  T
   6    -42.6305838 -0.146189E-04  0.661E-03    0.31       3.0  T
   7    -42.6305847 -0.865900E-06  0.283E-03    0.31       7.1  T
   8    -42.6305848 -0.620206E-07  0.966E-04    0.31      20.7  T
   9    -42.6305848 -0.950320E-08  0.476E-04    0.31      42.0  T
     SCC iter.                  ...        0 min,  0.013 sec
     gradient                   ...        0 min,  0.011 sec
 * total energy  :   -42.0251837 Eh     change       -0.6608575E-02 Eh
   gradient norm :     0.0942102 Eh/α   predicted    -0.4573628E-02 ( -30.79%)
   displ. norm   :     0.3512437 α      lambda       -0.1094223E-01
   maximum displ.:     0.1678930 α      in ANC's #13, #14, #16, ...

........................................................................
.............................. CYCLE   19 ..............................
........................................................................

 iter      E             dE          RMSdq      gap      omega  full diag
   1    -42.6398517 -0.426399E+02  0.328E-01    0.21       0.0  T
   2    -42.6392196  0.632054E-03  0.245E-01    0.36       1.0  T
   3    -42.6378891  0.133057E-02  0.239E-01    0.11       1.0  T
   4    -42.6400321 -0.214304E-02  0.933E-02    0.30       1.0  T
   5    -42.6402828 -0.250742E-03  0.258E-02    0.25       1.0  T
   6    -42.6403045 -0.216615E-04  0.978E-03    0.26       2.0  T
   7    -42.6403069 -0.239344E-05  0.414E-03    0.26       4.8  T
   8    -42.6403070 -0.130187E-06  0.149E-03    0.26      13.4  T
   9    -42.6403071 -0.394803E-07  0.714E-04    0.26      28.0  T
  10    -42.6403071 -0.431864E-08  0.403E-04    0.26      49.6  T
     SCC iter.                  ...        0 min,  0.014 sec
     gradient                   ...        0 min,  0.011 sec
 * total energy  :   -42.0333933 Eh     change       -0.8209557E-02 Eh
   gradient norm :     0.0943032 Eh/α   predicted    -0.6146135E-02 ( -25.13%)
   displ. norm   :     0.4327646 α      lambda       -0.1138502E-01
   maximum displ.:     0.1923643 α      in ANC's #1, #13, #14, ...

........................................................................
.............................. CYCLE   20 ..............................
........................................................................

 iter      E             dE          RMSdq      gap      omega  full diag
   1    -42.6403093 -0.426403E+02  0.385E-01    0.15       0.0  T
   2    -42.6395164  0.792963E-03  0.279E-01    0.31       1.0  T
   3    -42.6372229  0.229344E-02  0.295E-01    0.11       1.0  T
   4    -42.6405148 -0.329188E-02  0.972E-02    0.24       1.0  T
   5    -42.6408115 -0.296687E-03  0.205E-02    0.19       1.0  T
   6    -42.6408203 -0.874549E-05  0.920E-03    0.20       2.2  T
   7    -42.6408211 -0.806146E-06  0.587E-03    0.20       3.4  T
   8    -42.6408220 -0.911045E-06  0.235E-03    0.20       8.5  T
   9    -42.6408221 -0.156371E-06  0.735E-04    0.20      27.2  T
  10    -42.6408221 -0.806141E-08  0.403E-04    0.20      49.6  T
     SCC iter.                  ...        0 min,  0.014 sec
     gradient                   ...        0 min,  0.013 sec
 * total energy  :   -42.0409658 Eh     change       -0.7572556E-02 Eh
   gradient norm :     0.0868999 Eh/α   predicted    -0.6758663E-02 ( -10.75%)
   displ. norm   :     0.4839899 α      lambda       -0.1061182E-01
   maximum displ.:     0.2983908 α      in ANC's #1, #13, #14, ...
 * RMSD in coord.:     1.1393806 α      energy gain  -0.9494155E+01 Eh

generating ANC from model Hessian ...
Using Lindh-Hessian (1995)
 Shifting diagonal of input Hessian by    1.0069407384697620E-002
 Lowest  eigenvalues of input Hessian
    0.010000    0.000000    0.000000    0.000000    0.000000    0.000000
    0.000000    0.010484    0.011134    0.011399    0.011679    0.011831
    0.012638    0.014700    0.015475    0.020566    0.022723    0.023171
 Highest eigenvalues
    1.985577    2.143084    2.305771    2.602469    2.782325    2.936223


........................................................................
.............................. CYCLE   21 ..............................
........................................................................

 iter      E             dE          RMSdq      gap      omega  full diag
   1    -42.6380421 -0.426380E+02  0.410E-01    0.15       0.0  T
   2    -42.6378665  0.175559E-03  0.263E-01    0.23       1.0  T
   3    -42.6363940  0.147249E-02  0.256E-01    0.11       1.0  T
   4    -42.6377122 -0.131817E-02  0.127E-01    0.25       1.0  T
   5    -42.6384547 -0.742544E-03  0.259E-02    0.17       1.0  T
   6    -42.6384800 -0.253084E-04  0.106E-02    0.17       1.9  T
   7    -42.6384822 -0.212675E-05  0.619E-03    0.17       3.2  T
   8    -42.6384829 -0.734693E-06  0.160E-03    0.17      12.5  T
   9    -42.6384829 -0.494105E-07  0.614E-04    0.17      32.6  T
  10    -42.6384830 -0.478878E-08  0.278E-04    0.17      71.8  T
     SCC iter.                  ...        0 min,  0.014 sec
     gradient                   ...        0 min,  0.011 sec
 * total energy  :   -42.0466404 Eh     change       -0.5674519E-02 Eh
   gradient norm :     0.0781779 Eh/α   predicted     0.0000000E+00 (-100.00%)
   displ. norm   :     0.4225794 α      lambda       -0.1765991E-01
   maximum displ.:     0.2375264 α      in ANC's #17, #14, #22, ...

........................................................................
.............................. CYCLE   22 ..............................
........................................................................

 iter      E             dE          RMSdq      gap      omega  full diag
   1    -42.6468158 -0.426468E+02  0.352E-01    0.22       0.0  T
   2    -42.6465755  0.240275E-03  0.243E-01    0.16       1.0  T
   3    -42.6449821  0.159343E-02  0.238E-01    0.31       1.0  T
   4    -42.6468342 -0.185214E-02  0.868E-02    0.16       1.0  T
   5    -42.6470725 -0.238272E-03  0.410E-02    0.22       1.0  T
   6    -42.6471449 -0.724187E-04  0.785E-03    0.20       2.5  T
   7    -42.6471462 -0.124435E-05  0.430E-03    0.20       4.6  T
   8    -42.6471463 -0.179861E-06  0.156E-03    0.20      12.8  T
   9    -42.6471464 -0.544617E-07  0.551E-04    0.20      36.3  T
  10    -42.6471464 -0.290432E-08  0.287E-04    0.20      69.6  T
     SCC iter.                  ...        0 min,  0.014 sec
     gradient                   ...        0 min,  0.011 sec
 * total energy  :   -42.0606876 Eh     change       -0.1404720E-01 Eh
   gradient norm :     0.0547872 Eh/α   predicted    -0.1041632E-01 ( -25.85%)
   displ. norm   :     0.6110022 α      lambda       -0.1772744E-01
   maximum displ.:     0.3591800 α      in ANC's #17, #14, #37, ...

........................................................................
.............................. CYCLE   23 ..............................
........................................................................

 iter      E             dE          RMSdq      gap      omega  full diag
   1    -42.6515768 -0.426516E+02  0.490E-01    0.27       0.0  T
   2    -42.6511117  0.465145E-03  0.341E-01    0.24       1.0  T
   3    -42.6496515  0.146022E-02  0.300E-01    0.27       1.0  T
   4    -42.6522431 -0.259165E-02  0.744E-02    0.23       1.0  T
   5    -42.6523094 -0.663235E-04  0.497E-02    0.29       1.0  T
   6    -42.6524229 -0.113450E-03  0.970E-03    0.26       2.1  T
   7    -42.6524244 -0.149345E-05  0.479E-03    0.26       4.2  T
   8    -42.6524244 -0.624097E-07  0.244E-03    0.26       8.2  T
   9    -42.6524246 -0.130442E-06  0.591E-04    0.26      33.8  T
  10    -42.6524246 -0.318522E-09  0.357E-04    0.26      56.0  T
     SCC iter.                  ...        0 min,  0.014 sec
     gradient                   ...        0 min,  0.011 sec
 * total energy  :   -42.0740452 Eh     change       -0.1335766E-01 Eh
   gradient norm :     0.0544872 Eh/α   predicted    -0.1217277E-01 (  -8.87%)
   displ. norm   :     0.6255389 α      lambda       -0.1357666E-01
   maximum displ.:     0.3850487 α      in ANC's #17, #14, #15, ...

........................................................................
.............................. CYCLE   24 ..............................
........................................................................

 iter      E             dE          RMSdq      gap      omega  full diag
   1    -42.6445393 -0.426445E+02  0.515E-01    0.25       0.0  T
   2    -42.6442324  0.306938E-03  0.361E-01    0.29       1.0  T
   3    -42.6433847  0.847711E-03  0.294E-01    0.25       1.0  T
   4    -42.6453958 -0.201118E-02  0.106E-01    0.27       1.0  T
   5    -42.6456257 -0.229821E-03  0.491E-02    0.28       1.0  T
   6    -42.6457270 -0.101340E-03  0.182E-02    0.27       1.1  T
   7    -42.6457390 -0.119726E-04  0.633E-03    0.28       3.2  T
   8    -42.6457394 -0.392880E-06  0.266E-03    0.28       7.5  T
   9    -42.6457395 -0.112167E-06  0.853E-04    0.27      23.4  T
  10    -42.6457395 -0.681965E-08  0.548E-04    0.28      36.5  T
     SCC iter.                  ...        0 min,  0.014 sec
     gradient                   ...        0 min,  0.011 sec
 * total energy  :   -42.0834975 Eh     change       -0.9452274E-02 Eh
   gradient norm :     0.0622156 Eh/α   predicted    -0.9444598E-02 (  -0.08%)
   displ. norm   :     0.5062939 α      lambda       -0.1030491E-01
   maximum displ.:     0.2890842 α      in ANC's #17, #14, #39, ...

........................................................................
.............................. CYCLE   25 ..............................
........................................................................

 iter      E             dE          RMSdq      gap      omega  full diag
   1    -42.6513137 -0.426513E+02  0.429E-01    0.25       0.0  T
   2    -42.6513155 -0.185820E-05  0.273E-01    0.26       1.0  T
   3    -42.6502424  0.107317E-02  0.232E-01    0.26       1.0  T
   4    -42.6516115 -0.136916E-02  0.855E-02    0.26       1.0  T
   5    -42.6518199 -0.208410E-03  0.285E-02    0.27       1.0  T
   6    -42.6518496 -0.296702E-04  0.125E-02    0.26       1.6  T
   7    -42.6518556 -0.595225E-05  0.457E-03    0.26       4.4  T
   8    -42.6518558 -0.284145E-06  0.155E-03    0.26      12.9  T
   9    -42.6518559 -0.998470E-07  0.690E-04    0.26      29.0  T
  10    -42.6518560 -0.900692E-08  0.353E-04    0.26      56.6  T
     SCC iter.                  ...        0 min,  0.014 sec
     gradient                   ...        0 min,  0.011 sec
 * total energy  :   -42.0905004 Eh     change       -0.7002888E-02 Eh
   gradient norm :     0.0636877 Eh/α   predicted    -0.6473203E-02 (  -7.56%)
   displ. norm   :     0.3824697 α      lambda       -0.7925612E-02
   maximum displ.:     0.2137771 α      in ANC's #17, #39, #27, ...

........................................................................
.............................. CYCLE   26 ..............................
........................................................................

 iter      E             dE          RMSdq      gap      omega  full diag
   1    -42.6654342 -0.426654E+02  0.342E-01    0.30       0.0  T
   2    -42.6654975 -0.632790E-04  0.198E-01    0.29       1.0  T
   3    -42.6651119  0.385592E-03  0.112E-01    0.31       1.0  T
   4    -42.6653776 -0.265789E-03  0.570E-02    0.29       1.0  T
   5    -42.6655474 -0.169789E-03  0.154E-02    0.30       1.3  T
   6    -42.6655561 -0.870553E-05  0.475E-03    0.30       4.2  T
   7    -42.6655561  0.631386E-07  0.333E-03    0.30       6.0  T
   8    -42.6655564 -0.305084E-06  0.108E-03    0.30      18.4  T
   9    -42.6655564 -0.243199E-07  0.397E-04    0.30      50.4  T
  10    -42.6655564 -0.548596E-09  0.220E-04    0.30      90.8  T
     SCC iter.                  ...        0 min,  0.014 sec
     gradient                   ...        0 min,  0.011 sec
 * total energy  :   -42.0962187 Eh     change       -0.5718288E-02 Eh
   gradient norm :     0.0465662 Eh/α   predicted    -0.4542497E-02 ( -20.56%)
   displ. norm   :     0.4597634 α      lambda       -0.6014500E-02
   maximum displ.:     0.2253751 α      in ANC's #17, #9, #39, ...

........................................................................
.............................. CYCLE   27 ..............................
........................................................................

 iter      E             dE          RMSdq      gap      omega  full diag
   1    -42.6637665 -0.426638E+02  0.415E-01    0.37       0.0  T
   2    -42.6638320 -0.655520E-04  0.243E-01    0.35       1.0  T
   3    -42.6632238  0.608200E-03  0.119E-01    0.39       1.0  T
   4    -42.6637528 -0.529025E-03  0.525E-02    0.35       1.0  T
   5    -42.6638850 -0.132157E-03  0.200E-02    0.36       1.0  T
   6    -42.6639028 -0.178583E-04  0.439E-03    0.36       4.6  T
   7    -42.6639029 -0.408312E-07  0.226E-03    0.36       8.8  T
   8    -42.6639030 -0.934380E-07  0.761E-04    0.36      26.3  T
   9    -42.6639030 -0.133995E-07  0.335E-04    0.36      59.6  T
     SCC iter.                  ...        0 min,  0.013 sec
     gradient                   ...        0 min,  0.011 sec
 * total energy  :   -42.1005922 Eh     change       -0.4373482E-02 Eh
   gradient norm :     0.0497187 Eh/α   predicted    -0.3642949E-02 ( -16.70%)
   displ. norm   :     0.4723654 α      lambda       -0.6251956E-02
   maximum displ.:     0.2264839 α      in ANC's #17, #14, #9, ...

........................................................................
.............................. CYCLE   28 ..............................
........................................................................

 iter      E             dE          RMSdq      gap      omega  full diag
   1    -42.6648898 -0.426649E+02  0.503E-01    0.49       0.0  T
   2    -42.6644675  0.422275E-03  0.317E-01    0.51       1.0  T
   3    -42.6584922  0.597533E-02  0.375E-01    0.41       1.0  T
   4    -42.6650597 -0.656751E-02  0.640E-02    0.50       1.0  T
   5    -42.6652518 -0.192087E-03  0.155E-02    0.48       1.3  T
   6    -42.6652622 -0.103787E-04  0.603E-03    0.48       3.3  T
   7    -42.6652625 -0.269772E-06  0.325E-03    0.48       6.2  T
   8    -42.6652626 -0.113816E-06  0.152E-03    0.48      13.2  T
   9    -42.6652626 -0.693749E-07  0.438E-04    0.48      45.6  T
  10    -42.6652626 -0.204316E-08  0.191E-04    0.48     104.9  T
     SCC iter.                  ...        0 min,  0.014 sec
     gradient                   ...        0 min,  0.011 sec
 * total energy  :   -42.1051860 Eh     change       -0.4593890E-02 Eh
   gradient norm :     0.0567434 Eh/α   predicted    -0.3823476E-02 ( -16.77%)
   displ. norm   :     0.5597335 α      lambda       -0.7948725E-02
   maximum displ.:     0.2115323 α      in ANC's #17, #14, #39, ...

........................................................................
.............................. CYCLE   29 ..............................
........................................................................

 iter      E             dE          RMSdq      gap      omega  full diag
   1    -42.6516165 -0.426516E+02  0.783E-01    0.74       0.0  T
   2    -42.6483816  0.323493E-02  0.601E-01    0.91       1.0  T
   3    -42.6494690 -0.108742E-02  0.430E-01    0.69       1.0  T
   4    -42.6537663 -0.429731E-02  0.196E-01    0.84       1.0  T
   5    -42.6555460 -0.177964E-02  0.232E-02    0.79       1.0  T
   6    -42.6555562 -0.101821E-04  0.149E-02    0.79       1.3  T
   7    -42.6555604 -0.419907E-05  0.763E-03    0.79       2.6  T
   8    -42.6555613 -0.917969E-06  0.203E-03    0.79       9.8  T
   9    -42.6555614 -0.987462E-07  0.735E-04    0.79      27.2  T
  10    -42.6555614 -0.540972E-08  0.444E-04    0.79      45.0  T
     SCC iter.                  ...        0 min,  0.014 sec
     gradient                   ...        0 min,  0.011 sec
 * total energy  :   -42.1133678 Eh     change       -0.8181774E-02 Eh
   gradient norm :     0.0810405 Eh/α   predicted    -0.5219538E-02 ( -36.21%)
   displ. norm   :     0.6175702 α      lambda       -0.1455480E-01
   maximum displ.:     0.2934270 α      in ANC's #17, #21, #39, ...

........................................................................
.............................. CYCLE   30 ..............................
........................................................................

 iter      E             dE          RMSdq      gap      omega  full diag
   1    -42.6187057 -0.426187E+02  0.814E-01    0.79       0.0  T
   2    -42.6181771  0.528583E-03  0.669E-01    1.08       1.0  T
   3    -42.6245298 -0.635271E-02  0.359E-01    0.86       1.0  T
   4    -42.6240408  0.489012E-03  0.263E-01    1.00       1.0  T
   5    -42.6263878 -0.234696E-02  0.876E-02    0.91       1.0  T
   6    -42.6266752 -0.287384E-03  0.318E-02    0.94       1.0  T
   7    -42.6266994 -0.242113E-04  0.109E-02    0.93       1.8  T
   8    -42.6267009 -0.150491E-05  0.445E-03    0.93       4.5  T
   9    -42.6267012 -0.280540E-06  0.136E-03    0.93      14.7  T
  10    -42.6267012 -0.415743E-07  0.599E-04    0.93      33.4  T
  11    -42.6267012 -0.351874E-08  0.232E-04    0.93      86.1  T
     SCC iter.                  ...        0 min,  0.015 sec
     gradient                   ...        0 min,  0.011 sec
 * total energy  :   -42.1293759 Eh     change       -0.1600809E-01 Eh
   gradient norm :     0.0869497 Eh/α   predicted    -0.1005296E-01 ( -37.20%)
   displ. norm   :     0.8039693 α      lambda       -0.3051050E-01
   maximum displ.:     0.3710620 α      in ANC's #21, #27, #39, ...

........................................................................
.............................. CYCLE   31 ..............................
........................................................................

 iter      E             dE          RMSdq      gap      omega  full diag
   1    -42.5501739 -0.425502E+02  0.129E+00    0.24       0.0  T
   2    -42.5197337  0.304402E-01  0.156E+00    0.99       1.0  T
   3    -42.5920618 -0.723281E-01  0.603E-01    0.38       1.0  T
   4    -42.5887381  0.332366E-02  0.507E-01    0.51       1.0  T
   5    -42.5945692 -0.583111E-02  0.254E-01    0.44       1.0  T
   6    -42.5967468 -0.217761E-02  0.584E-02    0.43       1.0  T
   7    -42.5968638 -0.116942E-03  0.146E-02    0.44       1.4  T
   8    -42.5968637  0.102048E-06  0.880E-03    0.44       2.3  T
   9    -42.5968653 -0.166665E-05  0.310E-03    0.44       6.5  T
  10    -42.5968654 -0.114674E-06  0.961E-04    0.44      20.8  T
  11    -42.5968654 -0.116031E-07  0.415E-04    0.44      48.3  T
     SCC iter.                  ...        0 min,  0.016 sec
     gradient                   ...        0 min,  0.011 sec
 * total energy  :   -42.0663395 Eh     change        0.6303638E-01 Eh
   gradient norm :     0.5061252 Eh/α   predicted    -0.2511573E-01 (-139.84%)
   displ. norm   :     0.4682130 α      lambda       -0.1911770E+00
   maximum displ.:     0.1601138 α      in ANC's #37, #21, #17, ...

........................................................................
.............................. CYCLE   32 ..............................
........................................................................

 iter      E             dE          RMSdq      gap      omega  full diag
   1    -42.6153425 -0.426153E+02  0.107E+00    1.30       0.0  T
   2    -42.6037799  0.115626E-01  0.108E+00    0.59       1.0  T
   3    -42.6394439 -0.356641E-01  0.455E-01    1.07       1.0  T
   4    -42.6415327 -0.208878E-02  0.284E-01    0.90       1.0  T
   5    -42.6425209 -0.988210E-03  0.200E-01    0.95       1.0  T
   6    -42.6439214 -0.140050E-02  0.316E-02    0.94       1.0  T
   7    -42.6439422 -0.207570E-04  0.102E-02    0.94       2.0  T
   8    -42.6439430 -0.798667E-06  0.493E-03    0.95       4.1  T
   9    -42.6439432 -0.251002E-06  0.150E-03    0.95      13.4  T
  10    -42.6439432 -0.227075E-07  0.685E-04    0.95      29.2  T
  11    -42.6439432 -0.530715E-08  0.271E-04    0.95      73.9  T
     SCC iter.                  ...        0 min,  0.016 sec
     gradient                   ...        0 min,  0.011 sec
 * total energy  :   -42.1383033 Eh     change       -0.7196379E-01 Eh
   gradient norm :     0.0476269 Eh/α   predicted    -0.1165439E+00 (  61.95%)
   displ. norm   :     0.3978373 α      lambda       -0.1047389E-01
   maximum displ.:     0.1838013 α      in ANC's #17, #14, #11, ...

........................................................................
.............................. CYCLE   33 ..............................
........................................................................

 iter      E             dE          RMSdq      gap      omega  full diag
   1    -42.6603181 -0.426603E+02  0.325E-01    0.98       0.0  T
   2    -42.6604314 -0.113286E-03  0.190E-01    0.96       1.0  T
   3    -42.6603577  0.736918E-04  0.692E-02    0.98       1.0  T
   4    -42.6604419 -0.842504E-04  0.233E-02    0.96       1.0  T
   5    -42.6604592 -0.173082E-04  0.127E-02    0.97       1.6  T
   6    -42.6604641 -0.485470E-05  0.459E-03    0.97       4.4  T
   7    -42.6604641  0.199988E-07  0.330E-03    0.97       6.1  T
   8    -42.6604644 -0.359232E-06  0.769E-04    0.97      26.0  T
   9    -42.6604644 -0.142203E-07  0.338E-04    0.97      59.2  T
     SCC iter.                  ...        0 min,  0.013 sec
     gradient                   ...        0 min,  0.011 sec
 * total energy  :   -42.1425579 Eh     change       -0.4254580E-02 Eh
   gradient norm :     0.0548405 Eh/α   predicted    -0.6065832E-02 (  42.57%)
   displ. norm   :     0.2992188 α      lambda       -0.5508060E-02
   maximum displ.:     0.0884136 α      in ANC's #36, #39, #4, ...

........................................................................
.............................. CYCLE   34 ..............................
........................................................................

 iter      E             dE          RMSdq      gap      omega  full diag
   1    -42.6487867 -0.426488E+02  0.326E-01    0.82       0.0  T
   2    -42.6494744 -0.687682E-03  0.246E-01    0.80       1.0  T
   3    -42.6501225 -0.648139E-03  0.139E-01    0.86       1.0  T
   4    -42.6499020  0.220558E-03  0.128E-01    0.78       1.0  T
   5    -42.6503084 -0.406440E-03  0.549E-02    0.84       1.0  T
   6    -42.6504261 -0.117721E-03  0.134E-02    0.83       1.5  T
   7    -42.6504312 -0.507587E-05  0.510E-03    0.83       3.9  T
   8    -42.6504314 -0.189738E-06  0.225E-03    0.83       8.9  T
   9    -42.6504315 -0.116854E-06  0.428E-04    0.83      46.8  T
  10    -42.6504315 -0.146886E-08  0.207E-04    0.83      96.5  T
     SCC iter.                  ...        0 min,  0.014 sec
     gradient                   ...        0 min,  0.011 sec
 * total energy  :   -42.1390927 Eh     change        0.3465237E-02 Eh
   gradient norm :     0.0727911 Eh/α   predicted    -0.3000608E-02 (-186.59%)
   displ. norm   :     0.4672557 α      lambda       -0.1317577E-01
   maximum displ.:     0.2247343 α      in ANC's #13, #17, #14, ...

........................................................................
.............................. CYCLE   35 ..............................
........................................................................

 iter      E             dE          RMSdq      gap      omega  full diag
   1    -42.6692283 -0.426692E+02  0.338E-01    0.88       0.0  T
   2    -42.6689573  0.270996E-03  0.250E-01    0.95       1.0  T
   3    -42.6684743  0.482991E-03  0.212E-01    0.83       1.0  T
   4    -42.6696386 -0.116431E-02  0.917E-02    0.92       1.0  T
   5    -42.6698370 -0.198445E-03  0.437E-02    0.90       1.0  T
   6    -42.6699184 -0.813643E-04  0.716E-03    0.90       2.8  T
   7    -42.6699189 -0.481324E-06  0.370E-03    0.90       5.4  T
   8    -42.6699190 -0.677602E-07  0.119E-03    0.90      16.8  T
   9    -42.6699190 -0.214490E-07  0.497E-04    0.90      40.2  T
  10    -42.6699190 -0.192665E-08  0.173E-04    0.90     115.3  T
     SCC iter.                  ...        0 min,  0.014 sec
     gradient                   ...        0 min,  0.011 sec
 * total energy  :   -42.1446847 Eh     change       -0.5592022E-02 Eh
   gradient norm :     0.0424929 Eh/α   predicted    -0.8026191E-02 (  43.53%)
   displ. norm   :     0.2557268 α      lambda       -0.5281183E-02
   maximum displ.:     0.1005678 α      in ANC's #5, #13, #2, ...

........................................................................
.............................. CYCLE   36 ..............................
........................................................................

 iter      E             dE          RMSdq      gap      omega  full diag
   1    -42.6596403 -0.426596E+02  0.255E-01    1.01       0.0  T
   2    -42.6597034 -0.631135E-04  0.208E-01    0.93       1.0  T
   3    -42.6600205 -0.317077E-03  0.149E-01    1.01       1.0  T
   4    -42.6602535 -0.233033E-03  0.939E-02    0.95       1.0  T
   5    -42.6604950 -0.241480E-03  0.161E-02    0.97       1.2  T
   6    -42.6605010 -0.599034E-05  0.500E-03    0.97       4.0  T
   7    -42.6605011 -0.880387E-07  0.300E-03    0.97       6.7  T
   8    -42.6605011 -0.817751E-07  0.156E-03    0.97      12.8  T
   9    -42.6605012 -0.103294E-06  0.427E-04    0.97      46.9  T
  10    -42.6605012 -0.190882E-08  0.205E-04    0.97      97.4  T
     SCC iter.                  ...        0 min,  0.014 sec
     gradient                   ...        0 min,  0.011 sec
 * total energy  :   -42.1446159 Eh     change        0.6882023E-04 Eh
   gradient norm :     0.0531688 Eh/α   predicted    -0.2813288E-02 (*******%)
   displ. norm   :     0.2261554 α      lambda       -0.3862071E-02
   maximum displ.:     0.0938328 α      in ANC's #9, #13, #12, ...

........................................................................
.............................. CYCLE   37 ..............................
........................................................................

 iter      E             dE          RMSdq      gap      omega  full diag
   1    -42.6648672 -0.426649E+02  0.145E-01    0.91       0.0  T
   2    -42.6650316 -0.164380E-03  0.983E-02    0.93       1.0  T
   3    -42.6650850 -0.534142E-04  0.563E-02    0.92       1.0  T
   4    -42.6649715  0.113559E-03  0.629E-02    0.94       1.0  T
   5    -42.6651183 -0.146791E-03  0.108E-02    0.92       1.9  T
   6    -42.6651211 -0.287118E-05  0.442E-03    0.93       4.5  T
   7    -42.6651218 -0.646299E-06  0.190E-03    0.93      10.5  T
   8    -42.6651218 -0.445198E-07  0.858E-04    0.93      23.3  T
   9    -42.6651219 -0.155999E-07  0.165E-04    0.93     121.2  T
     SCC iter.                  ...        0 min,  0.013 sec
     gradient                   ...        0 min,  0.011 sec
 * total energy  :   -42.1467172 Eh     change       -0.2101282E-02 Eh
   gradient norm :     0.0228495 Eh/α   predicted    -0.2029820E-02 (  -3.40%)
   displ. norm   :     0.1363842 α      lambda       -0.9154454E-03
   maximum displ.:     0.0502175 α      in ANC's #14, #1, #4, ...

........................................................................
.............................. CYCLE   38 ..............................
........................................................................

 iter      E             dE          RMSdq      gap      omega  full diag
   1    -42.6666577 -0.426667E+02  0.875E-02    0.90       0.0  T
   2    -42.6667160 -0.582927E-04  0.632E-02    0.92       1.0  T
   3    -42.6667308 -0.148050E-04  0.432E-02    0.89       1.0  T
   4    -42.6667146  0.161509E-04  0.411E-02    0.92       1.0  T
   5    -42.6667650 -0.503710E-04  0.800E-03    0.91       2.5  T
   6    -42.6667665 -0.153022E-05  0.311E-03    0.91       6.4  T
   7    -42.6667668 -0.263362E-06  0.148E-03    0.91      13.5  T
   8    -42.6667668 -0.278986E-07  0.613E-04    0.91      32.6  T
   9    -42.6667668 -0.687105E-08  0.193E-04    0.91     103.7  T
     SCC iter.                  ...        0 min,  0.013 sec
     gradient                   ...        0 min,  0.011 sec
 * total energy  :   -42.1469765 Eh     change       -0.2593267E-03 Eh
   gradient norm :     0.0151598 Eh/α   predicted    -0.4662464E-03 (  79.79%)
   displ. norm   :     0.1715960 α      lambda       -0.6211533E-03
   maximum displ.:     0.0879181 α      in ANC's #5, #9, #13, ...

........................................................................
.............................. CYCLE   39 ..............................
........................................................................

 iter      E             dE          RMSdq      gap      omega  full diag
   1    -42.6680719 -0.426681E+02  0.656E-02    0.92       0.0  T
   2    -42.6680609  0.110288E-04  0.454E-02    0.92       1.0  T
   3    -42.6680012  0.596786E-04  0.515E-02    0.93       1.0  T
   4    -42.6680809 -0.797377E-04  0.119E-02    0.92       1.7  T
   5    -42.6680850 -0.406317E-05  0.388E-03    0.92       5.2  T
   6    -42.6680855 -0.485300E-06  0.169E-03    0.92      11.8  T
   7    -42.6680855 -0.415835E-07  0.912E-04    0.92      21.9  T
   8    -42.6680856 -0.133148E-07  0.221E-04    0.92      90.6  T
     SCC iter.                  ...        0 min,  0.011 sec
     gradient                   ...        0 min,  0.011 sec
 * total energy  :   -42.1473887 Eh     change       -0.4122067E-03 Eh
   gradient norm :     0.0072384 Eh/α   predicted    -0.3197226E-03 ( -22.44%)
   displ. norm   :     0.1460793 α      lambda       -0.2603046E-03
   maximum displ.:     0.1005365 α      in ANC's #5, #14, #12, ...

........................................................................
.............................. CYCLE   40 ..............................
........................................................................

 iter      E             dE          RMSdq      gap      omega  full diag
   1    -42.6684201 -0.426684E+02  0.536E-02    0.93       0.0  T
   2    -42.6684146  0.548343E-05  0.355E-02    0.92       1.0  T
   3    -42.6683656  0.489725E-04  0.426E-02    0.94       1.0  T
   4    -42.6684239 -0.582930E-04  0.926E-03    0.92       2.2  T
   5    -42.6684262 -0.234463E-05  0.296E-03    0.93       6.8  T
   6    -42.6684266 -0.339180E-06  0.111E-03    0.93      17.9  T
   7    -42.6684266 -0.134174E-07  0.493E-04    0.93      40.6  T
   8    -42.6684266 -0.385645E-08  0.155E-04    0.93     129.4  T
     SCC iter.                  ...        0 min,  0.011 sec
     gradient                   ...        0 min,  0.011 sec
 * total energy  :   -42.1475491 Eh     change       -0.1604012E-03 Eh
   gradient norm :     0.0081373 Eh/α   predicted    -0.1329334E-03 ( -17.12%)
   displ. norm   :     0.0819365 α      lambda       -0.1027626E-03
   maximum displ.:     0.0570479 α      in ANC's #5, #9, #13, ...

........................................................................
.............................. CYCLE   41 ..............................
........................................................................

 iter      E             dE          RMSdq      gap      omega  full diag
   1    -42.6693509 -0.426694E+02  0.320E-02    0.93       0.0  T
   2    -42.6693510 -0.169586E-06  0.194E-02    0.93       1.0  T
   3    -42.6693414  0.968376E-05  0.170E-02    0.93       1.2  T
   4    -42.6693517 -0.103611E-04  0.502E-03    0.93       4.0  T
   5    -42.6693524 -0.718608E-06  0.249E-03    0.93       8.0  T
   6    -42.6693527 -0.221713E-06  0.549E-04    0.93      36.4  T
   7    -42.6693527 -0.135934E-08  0.216E-04    0.93      92.5  T
     SCC iter.                  ...        0 min,  0.010 sec
     gradient                   ...        0 min,  0.011 sec
 * total energy  :   -42.1476129 Eh     change       -0.6380486E-04 Eh
   gradient norm :     0.0056672 Eh/α   predicted    -0.5173224E-04 ( -18.92%)
   displ. norm   :     0.0776959 α      lambda       -0.7458020E-04
   maximum displ.:     0.0671614 α      in ANC's #5, #7, #1, ...

........................................................................
.............................. CYCLE   42 ..............................
........................................................................

 iter      E             dE          RMSdq      gap      omega  full diag
   1    -42.6697759 -0.426698E+02  0.273E-02    0.93       0.0  T
   2    -42.6697758  0.763881E-07  0.168E-02    0.93       1.2  T
   3    -42.6697679  0.788932E-05  0.142E-02    0.92       1.4  T
   4    -42.6697770 -0.912715E-05  0.240E-03    0.93       8.3  T
   5    -42.6697771 -0.102049E-06  0.145E-03    0.93      13.8  T
   6    -42.6697772 -0.650898E-07  0.466E-04    0.93      42.9  T
   7    -42.6697772 -0.227300E-08  0.197E-04    0.93     101.7  T
     SCC iter.                  ...        0 min,  0.010 sec
     gradient                   ...        0 min,  0.011 sec
 * total energy  :   -42.1476614 Eh     change       -0.4846025E-04 Eh
   gradient norm :     0.0047216 Eh/α   predicted    -0.3751870E-04 ( -22.58%)
   displ. norm   :     0.0890509 α      lambda       -0.6922847E-04
   maximum displ.:     0.0758120 α      in ANC's #5, #2, #12, ...
 * RMSD in coord.:     0.7648313 α      energy gain  -0.1066955E+00 Eh

generating ANC from model Hessian ...
Using Lindh-Hessian (1995)
 Shifting diagonal of input Hessian by    9.8729619062914650E-003
 Lowest  eigenvalues of input Hessian
    0.000000    0.000000    0.000000    0.000000    0.000000    0.000000
    0.010000    0.010313    0.011724    0.013617    0.014694    0.017945
    0.018758    0.020675    0.023036    0.023705    0.025492    0.037556
 Highest eigenvalues
    2.104187    2.117902    2.334340    2.395273    2.517505    3.218648


........................................................................
.............................. CYCLE   43 ..............................
........................................................................

 iter      E             dE          RMSdq      gap      omega  full diag
   1    -42.6703515 -0.426704E+02  0.307E-02    0.92       0.0  T
   2    -42.6703503  0.113313E-05  0.205E-02    0.93       1.0  T
   3    -42.6703368  0.135553E-04  0.225E-02    0.92       1.0  T
   4    -42.6703531 -0.163062E-04  0.604E-03    0.93       3.3  T
   5    -42.6703540 -0.902069E-06  0.246E-03    0.92       8.1  T
   6    -42.6703543 -0.279328E-06  0.658E-04    0.92      30.4  T
   7    -42.6703543 -0.272883E-08  0.291E-04    0.92      68.7  T
     SCC iter.                  ...        0 min,  0.010 sec
     gradient                   ...        0 min,  0.011 sec
 * total energy  :   -42.1476986 Eh     change       -0.3729657E-04 Eh
   gradient norm :     0.0040382 Eh/α   predicted     0.0000000E+00 (-100.00%)
   displ. norm   :     0.0369669 α      lambda       -0.4425767E-04
   maximum displ.:     0.0307082 α      in ANC's #3, #6, #19, ...

........................................................................
.............................. CYCLE   44 ..............................
........................................................................

 iter      E             dE          RMSdq      gap      omega  full diag
   1    -42.6700119 -0.426700E+02  0.162E-02    0.92       0.0  T
   2    -42.6700122 -0.350010E-06  0.932E-03    0.92       2.1  T
   3    -42.6700117  0.493453E-06  0.549E-03    0.92       3.6  T
   4    -42.6700118 -0.332954E-07  0.403E-03    0.92       5.0  T
   5    -42.6700124 -0.618812E-06  0.468E-04    0.92      42.8  T
   6    -42.6700124 -0.159973E-08  0.291E-04    0.92      68.8  T
     SCC iter.                  ...        0 min,  0.009 sec
     gradient                   ...        0 min,  0.011 sec
 * total energy  :   -42.1477306 Eh     change       -0.3197493E-04 Eh
   gradient norm :     0.0019992 Eh/α   predicted    -0.2296583E-04 ( -28.18%)
   displ. norm   :     0.0875644 α      lambda       -0.3308019E-04
   maximum displ.:     0.0820595 α      in ANC's #3, #19, #14, ...

   *** GEOMETRY OPTIMIZATION CONVERGED AFTER 44 ITERATIONS ***

------------------------------------------------------------------------
 total energy gain   :        -9.6009198 Eh    -6024.6682 kcal/mol
 total RMSD          :         1.4574335 a0        0.7712 Å
 total power (kW/mol):      -572.8911722 (step)********** (real)
------------------------------------------------------------------------

 ANCopt (total)                0 d,  0 h,  0 min,  1.355 sec
 optimizer setup                ...        0 min,  0.000 sec (  0.026%)
 model hessian                  ...        0 min,  0.018 sec (  1.342%)
 ANC generation                 ...        0 min,  0.003 sec (  0.214%)
 coordinate transformation      ...        0 min,  0.000 sec (  0.027%)
 single point calculation       ...        0 min,  1.321 sec ( 97.526%)
 optimization log               ...        0 min,  0.004 sec (  0.275%)
 hessian update                 ...        0 min,  0.001 sec (  0.039%)
 rational function              ...        0 min,  0.006 sec (  0.413%)

================
 final structure:
================
25
 xtb: 6.6.1 (8d0f1dd)
C            3.80749412576866        1.01913181682110        0.05542411002590
N            4.23793828193332       -0.31951593427848        0.03555687384502
C            3.51681335218916       -1.35437057359682        0.00429421499442
N            2.10604724630980       -1.60292593283616       -0.02688632417199
C            1.03098871444997       -0.84375328626362       -0.00829467715690
C           -0.24560727694999       -0.45126748537438       -0.01421026183617
C           -0.53661968253633        1.02190164649256       -0.02079863903856
O            0.26791485731675        1.92200098214272       -0.03045692224408
N           -1.90212268123660        1.13745191366167       -0.01386179940793
C           -2.61933078984507        2.38396292952047       -0.01686716510749
C           -2.52805377562541       -0.10427744735865       -0.00249736329081
O           -3.71143923904257       -0.30964909196341        0.00720197234276
N           -1.53949306257752       -1.06538505869864       -0.00451583436129
C           -1.80693826026011       -2.47150794807334        0.00698080688921
H            4.19397136936766        1.49867385950505        0.95899565211405
H            4.24900356300326        1.54080385681573       -0.79822322583054
H            2.71001849936804        1.12971990327677        0.02447818287160
H            4.05170704222063       -2.29730213582972       -0.00952133399958
H           -1.89360437675819        3.19646412303961       -0.01691694541491
H           -3.25466541262777        2.44872895325819       -0.90302293708563
H           -3.25701614906257        2.45020232093845        0.86740929338349
H           -1.36781083395650       -2.94402153326188        0.88847400030307
H           -1.41283675190875       -2.95026212110078       -0.89262961021510
H           -2.89046284327884       -2.60231822560163        0.03381341475621
H            1.95453559783824       -2.61424698963283       -0.09275386446440

 Bond Distances (Angstroems)
 ---------------------------
C1-N2=1.4063         C1-H15=1.0935        C1-H16=1.0935        C1-H17=1.1035        N2-C1=1.4063         N2-C3=1.2617         
C3-N2=1.2617         C3-N4=1.4328         C3-H18=1.0842        N4-C3=1.4328         N4-C5=1.3162         N4-H25=1.0247        
C5-N4=1.3162         C5-C6=1.3356         C6-C5=1.3356         C6-C7=1.5017         C6-N13=1.4323        C7-C6=1.5017         
C7-O8=1.2073         C7-N9=1.3704         O8-C7=1.2073         N9-C7=1.3704         N9-C10=1.4381        N9-C11=1.3906        
C10-N9=1.4381        C10-H19=1.0894       C10-H20=1.0923       C10-H21=1.0922       C11-N9=1.3906        C11-O12=1.2011       
C11-N13=1.3788       O12-C11=1.2011       N13-C6=1.4323        N13-C11=1.3788       N13-C14=1.4314       C14-N13=1.4314       
C14-H22=1.0923       C14-H23=1.0926       C14-H24=1.0917       H15-C1=1.0935        H16-C1=1.0935        H17-C1=1.1035        
H18-C3=1.0842        H19-C10=1.0894       H20-C10=1.0923       H21-C10=1.0922       H22-C14=1.0923       H23-C14=1.0926       
H24-C14=1.0917       H25-N4=1.0247        
 C  H  Rav=1.0925 sigma=0.0045  Rmin=1.0842  Rmax=1.1035    10
 C  C  Rav=1.4186 sigma=0.0830  Rmin=1.3356  Rmax=1.5017     2
 N  H  Rav=1.0247 sigma=0.0000  Rmin=1.0247  Rmax=1.0247     1
 N  C  Rav=1.3859 sigma=0.0549  Rmin=1.2617  Rmax=1.4381    10
 O  C  Rav=1.2042 sigma=0.0031  Rmin=1.2011  Rmax=1.2073     2

 selected bond angles (degree)
 --------------------
H15-C1-N2=108.72               H16-C1-N2=108.63               H16-C1-H15=107.05              H17-C1-N2=113.54               
H17-C1-H15=109.31              H17-C1-H16=109.38              C3-N2-C1=127.31                N4-C3-N2=134.87                
H18-C3-N2=115.57               H18-C3-N4=109.55               C5-N4-C3=134.74                H25-N4-C3=108.55               
H25-N4-C5=116.70               C6-C5-N4=161.83                C7-C6-C5=118.27                N13-C6-C5=137.52               
N13-C6-C7=104.22               O8-C7-C6=127.04                N9-C7-C6=106.01                N9-C7-O8=126.96                
C10-N9-C7=124.75               C11-N9-C7=111.92               C11-N9-C10=123.33              H19-C10-N9=108.31              
H20-C10-N9=110.07              H20-C10-H19=110.07             H21-C10-N9=110.00              H21-C10-H19=110.10             
H21-C10-H20=108.28             

 selected dihedral angles (degree)
 ---------------------------------
C3-N2-C1-H15=120.97           C3-N2-C1-H16=237.13           C3-N2-C1-H17=359.06           N4-C3-N2-C1=  0.28            
H18-C3-N2-C1=179.81           C5-N4-C3-N2=358.39            C5-N4-C3-H18=178.84           H25-N4-C3-N2=177.29           
H25-N4-C3-H18=357.75          C6-C5-N4-C3=179.28            C6-C5-N4-H25=  0.44           C7-C6-C5-N4=183.52            
N13-C6-C5-N4=  4.22           O8-C7-C6-C5=  0.54            O8-C7-C6-N13=180.05           N9-C7-C6-C5=180.53            
N9-C7-C6-N13=  0.04           C10-N9-C7-C6=180.00           C10-N9-C7-O8=  0.00           C11-N9-C7-C6=  0.04           
C11-N9-C7-O8=180.03           H19-C10-N9-C7=359.53          H19-C10-N9-C11=179.48         H20-C10-N9-C7=119.91          
H20-C10-N9-C11=299.87         H21-C10-N9-C7=239.14          H21-C10-N9-C11= 59.10         
           -------------------------------------------------
          |                Final Singlepoint                |
           -------------------------------------------------

          ...................................................
          :                      SETUP                      :
          :.................................................:
          :  # basis functions                  67          :
          :  # atomic orbitals                  67          :
          :  # shells                           39          :
          :  # electrons                        74          :
          :  max. iterations                   250          :
          :  Hamiltonian                  GFN2-xTB          :
          :  restarted?                      false          :
          :  GBSA solvation                  false          :
          :  PC potential                    false          :
          :  electronic temp.         7500.0000000     K    :
          :  accuracy                    1.0000000          :
          :  -> integral cutoff          0.2500000E+02      :
          :  -> integral neglect         0.1000000E-07      :
          :  -> SCF convergence          0.1000000E-05 Eh   :
          :  -> wf. convergence          0.1000000E-03 e    :
          :  Broyden damping             0.4000000          :
          ...................................................

 iter      E             dE          RMSdq      gap      omega  full diag
   1    -42.6700124 -0.426700E+02  0.144E-04    0.92       0.0  T
   2    -42.6700124  0.600650E-09  0.167E-04    0.92     119.8  T
   3    -42.6700124 -0.129831E-08  0.502E-05    0.92     398.2  T

   *** convergence criteria satisfied after 3 iterations ***

         #    Occupation            Energy/Eh            Energy/eV
      -------------------------------------------------------------
         1        2.0000           -0.8837804             -24.0489
       ...           ...                  ...                  ...
        31        1.9792           -0.6142106             -16.7135
        32        1.9503           -0.5931335             -16.1400
        33        1.9370           -0.5873535             -15.9827
        34        1.8930           -0.5742235             -15.6254
        35        1.8762           -0.5705484             -15.5254
        36        1.7926           -0.5572048             -15.1623
        37        1.5757           -0.5371368             -14.6162 (HOMO)
        38        0.9419           -0.5032146             -13.6932 (LUMO)
        39        0.0982           -0.4355918             -11.8531
        40        0.0120           -0.3845889             -10.4652
        41        0.0018           -0.3394787              -9.2377
        42        0.0004           -0.3059974              -8.3266
       ...           ...                  ...                  ...
        67                          0.6784458              18.4614
      -------------------------------------------------------------
                  HL-Gap            0.0339223 Eh            0.9231 eV
             Fermi-level           -0.5059763 Eh          -13.7683 eV

 SCC (total)                   0 d,  0 h,  0 min,  0.020 sec
 SCC setup                      ...        0 min,  0.000 sec (  0.877%)
 Dispersion                     ...        0 min,  0.000 sec (  0.930%)
 classical contributions        ...        0 min,  0.000 sec (  0.330%)
 integral evaluation            ...        0 min,  0.004 sec ( 20.367%)
 iterations                     ...        0 min,  0.005 sec ( 23.590%)
 molecular gradient             ...        0 min,  0.011 sec ( 53.296%)
 printout                       ...        0 min,  0.000 sec (  0.552%)

         :::::::::::::::::::::::::::::::::::::::::::::::::::::
         ::                     SUMMARY                     ::
         :::::::::::::::::::::::::::::::::::::::::::::::::::::
         :: total energy             -42.147730623689 Eh    ::
         :: gradient norm              0.002001067206 Eh/a0 ::
         :: HOMO-LUMO gap              0.923071459266 eV    ::
         ::.................................................::
         :: SCC energy               -42.670012375356 Eh    ::
         :: -> isotropic ES            0.130422475316 Eh    ::
         :: -> anisotropic ES         -0.006461752383 Eh    ::
         :: -> anisotropic XC          0.016689574805 Eh    ::
         :: -> dispersion             -0.019931253213 Eh    ::
         :: repulsion energy           0.521894423063 Eh    ::
         :: add. restraining           0.000374539498 Eh    ::
         :: total charge               1.000000000000 e     ::
         :::::::::::::::::::::::::::::::::::::::::::::::::::::

           -------------------------------------------------
          |                Property Printout                |
           -------------------------------------------------

    * Orbital Energies and Occupations

         #    Occupation            Energy/Eh            Energy/eV
      -------------------------------------------------------------
         1        2.0000           -0.8837804             -24.0489
       ...           ...                  ...                  ...
        25        1.9977           -0.6668291             -18.1453
        26        1.9971           -0.6612521             -17.9936
        27        1.9944           -0.6455793             -17.5671
        28        1.9898           -0.6312755             -17.1779
        29        1.9871           -0.6255799             -17.0229
        30        1.9838           -0.6201774             -16.8759
        31        1.9792           -0.6142106             -16.7135
        32        1.9503           -0.5931335             -16.1400
        33        1.9370           -0.5873535             -15.9827
        34        1.8930           -0.5742235             -15.6254
        35        1.8762           -0.5705484             -15.5254
        36        1.7926           -0.5572048             -15.1623
        37        1.5757           -0.5371368             -14.6162 (HOMO)
        38        0.9419           -0.5032146             -13.6932 (LUMO)
        39        0.0982           -0.4355918             -11.8531
        40        0.0120           -0.3845889             -10.4652
        41        0.0018           -0.3394787              -9.2377
        42        0.0004           -0.3059974              -8.3266
        43        0.0000           -0.2171438              -5.9088
        44        0.0000           -0.1777290              -4.8363
        45        0.0000           -0.1348933              -3.6706
        46                         -0.0883340              -2.4037
        47                         -0.0596166              -1.6223
        48                         -0.0291038              -0.7920
       ...                                ...                  ...
        67                          0.6784458              18.4614
      -------------------------------------------------------------
                  HL-Gap            0.0339223 Eh            0.9231 eV
             Fermi-level           -0.5059763 Eh          -13.7683 eV

     #   Z          covCN         q      C6AA      α(0)
     1   6 C        3.698    -0.052    21.682     6.660
     2   7 N        1.820    -0.091    23.758     7.222
     3   6 C        2.764     0.102    25.733     8.308
     4   7 N        2.678    -0.041    22.033     6.971
     5   6 C        1.903     0.025    30.473     8.915
     6   6 C        2.944     0.016    27.657     8.625
     7   6 C        2.839     0.271    22.437     7.763
     8   8 O        0.857    -0.332    20.362     6.050
     9   7 N        2.783    -0.060    22.400     7.029
    10   6 C        3.690    -0.057    21.793     6.681
    11   6 C        2.797     0.322    21.540     7.603
    12   8 O        0.857    -0.329    20.310     6.042
    13   7 N        2.776    -0.043    22.070     6.977
    14   6 C        3.688    -0.062    21.893     6.697
    15   1 H        0.924     0.123     1.586     1.969
    16   1 H        0.924     0.124     1.583     1.968
    17   1 H        0.923     0.101     1.777     2.085
    18   1 H        0.925     0.108     1.715     2.048
    19   1 H        0.925     0.117     1.640     2.002
    20   1 H        0.924     0.113     1.668     2.020
    21   1 H        0.924     0.113     1.667     2.019
    22   1 H        0.924     0.093     1.848     2.126
    23   1 H        0.924     0.093     1.846     2.124
    24   1 H        0.924     0.123     1.590     1.972
    25   1 H        0.859     0.223     0.998     1.565

 Mol. C6AA /au·bohr⁶  :       6573.153275
 Mol. C8AA /au·bohr⁸  :     151022.415280
 Mol. α(0) /au        :        123.441586


Wiberg/Mayer (AO) data.
largest (>0.10) Wiberg bond orders for each atom

 ---------------------------------------------------------------------------
     #   Z sym  total        # sym  WBO       # sym  WBO       # sym  WBO
 ---------------------------------------------------------------------------
     1   6 C    3.871 --     2 N    1.074    16 H    0.920    15 H    0.919
                            17 H    0.909
     2   7 N    3.003 --     3 C    1.778     1 C    1.074
     3   6 C    3.870 --     2 N    1.778     4 N    1.045    18 H    0.936
     4   7 N    3.445 --     5 C    1.352     3 C    1.045    25 H    0.880
     5   6 C    3.139 --     6 C    1.578     4 N    1.352
     6   6 C    3.774 --     5 C    1.578    13 N    1.045     7 C    0.948
     7   6 C    3.863 --     8 O    1.684     9 N    1.138     6 C    0.948
     8   8 O    1.946 --     7 C    1.684     9 N    0.118
     9   7 N    3.472 --     7 C    1.138    11 C    1.068    10 C    0.987
                             8 O    0.118
    10   6 C    3.868 --     9 N    0.987    19 H    0.959    21 H    0.943
                            20 H    0.942
    11   6 C    3.929 --    12 O    1.671    13 N    1.108     9 N    1.068
    12   8 O    1.945 --    11 C    1.671    13 N    0.111
    13   7 N    3.352 --    11 C    1.108     6 C    1.045    14 C    1.002
                            12 O    0.111
    14   6 C    3.899 --    13 N    1.002    24 H    0.955    22 H    0.953
                            23 H    0.952
    15   1 H    0.955 --     1 C    0.919
    16   1 H    0.955 --     1 C    0.920
    17   1 H    0.936 --     1 C    0.909
    18   1 H    0.974 --     3 C    0.936
    19   1 H    0.973 --    10 C    0.959
    20   1 H    0.958 --    10 C    0.942
    21   1 H    0.959 --    10 C    0.943
    22   1 H    0.968 --    14 C    0.953
    23   1 H    0.967 --    14 C    0.952
    24   1 H    0.973 --    14 C    0.955
    25   1 H    0.893 --     4 N    0.880
 ---------------------------------------------------------------------------

Topologies differ in total number of bonds
Writing topology from bond orders to xtbtopo.mol

molecular dipole:
                 x           y           z       tot (Debye)
 q only:        1.775      -1.329      -0.008
   full:        1.517      -1.629      -0.021       5.657
molecular quadrupole (traceless):
                xx          xy          yy          xz          yz          zz
 q only:       14.581     -10.675       7.488       0.214       0.400     -22.069
  q+dip:        8.781     -12.394       9.514       0.147       0.564     -18.295
   full:        6.584     -12.269       9.503       0.139       0.525     -16.087

           -------------------------------------------------
          |                Geometry Summary                 |
           -------------------------------------------------

      molecular mass/u    :      195.1988581
   center of mass at/Å    :       -0.0199939      -0.0557605      -0.0020442
  moments of inertia/u·Å² :        0.3903079E+03   0.1273580E+04   0.1654220E+04
rotational constants/cm⁻¹ :        0.4319060E-01   0.1323642E-01   0.1019069E-01

 * 22 selected distances

     #   Z          #   Z                                           value/Å
     1   6 C        2   7 N                                       1.4062912
     2   7 N        3   6 C                                       1.2617143
     4   7 N        5   6 C                                       1.3162218
     5   6 C        6   6 C                                       1.3355814
     7   6 C        8   8 O                                       1.2072896
     7   6 C        9   7 N                                       1.3704010
     9   7 N       10   6 C                                       1.4381191 (max)
     9   7 N       11   6 C                                       1.3906153
    11   6 C       12   8 O                                       1.2011132
    11   6 C       13   7 N                                       1.3787620
    13   7 N       14   6 C                                       1.4313773
     1   6 C       15   1 H                                       1.0935113
     1   6 C       16   1 H                                       1.0935201
     1   6 C       17   1 H                                       1.1034674
     3   6 C       18   1 H                                       1.0841689
    10   6 C       19   1 H                                       1.0894206
    10   6 C       20   1 H                                       1.0922989
    10   6 C       21   1 H                                       1.0922341
    14   6 C       22   1 H                                       1.0923060
    14   6 C       23   1 H                                       1.0926210
    14   6 C       24   1 H                                       1.0917221
     4   7 N       25   1 H                                       1.0247267 (min)

 * 5 distinct bonds (by element types)

   Z      Z             #   av. dist./Å        max./Å        min./Å
   1 H    6 C          10     1.0925271     1.1034674     1.0841689
   6 C    6 C           1     1.3355814     1.3355814     1.3355814
   1 H    7 N           1     1.0247267     1.0247267     1.0247267
   6 C    7 N           8     1.3741878     1.4381191     1.2617143
   6 C    8 O           2     1.2042014     1.2072896     1.2011132


optimized geometry written to: xtbopt.xyz


           -------------------------------------------------
          | TOTAL ENERGY              -42.147730623689 Eh   |
          | GRADIENT NORM               0.002001067206 Eh/α |
          | HOMO-LUMO GAP               0.923071459266 eV   |
           -------------------------------------------------

------------------------------------------------------------------------
 * finished run on 2024/06/05 at 19:58:42.309     
------------------------------------------------------------------------
 total:
 * wall-time:     0 d,  0 h,  0 min,  1.457 sec
 *  cpu-time:     0 d,  0 h,  0 min,  1.427 sec
 * ratio c/w:     0.979 speedup
 SCF:
 * wall-time:     0 d,  0 h,  0 min,  0.040 sec
 *  cpu-time:     0 d,  0 h,  0 min,  0.040 sec
 * ratio c/w:     1.000 speedup
 ANC optimizer:
 * wall-time:     0 d,  0 h,  0 min,  1.380 sec
 *  cpu-time:     0 d,  0 h,  0 min,  1.374 sec
 * ratio c/w:     0.996 speedup

