      -----------------------------------------------------------      
     |                   =====================                   |     
     |                           x T B                           |     
     |                   =====================                   |     
     |                         S. Grimme                         |     
     |          Mulliken Center for Theoretical Chemistry        |     
     |                    University of Bonn                     |     
      -----------------------------------------------------------      

   * xtb version 6.6.1 (8d0f1dd) compiled by 'conda@1efc2f54142f' on 2023-08-01

   xtb is free software: you can redistribute it and/or modify it under
   the terms of the GNU Lesser General Public License as published by
   the Free Software Foundation, either version 3 of the License, or
   (at your option) any later version.
   
   xtb is distributed in the hope that it will be useful,
   but WITHOUT ANY WARRANTY; without even the implied warranty of
   MERCHANTABILITY or FITNESS FOR A PARTICULAR PURPOSE.  See the
   GNU Lesser General Public License for more details.
   
   Cite this work as:
   * C. Bannwarth, E. Caldeweyher, S. Ehlert, A. Hansen, P. Pracht,
     J. Seibert, S. Spicher, S. Grimme, WIREs Comput. Mol. Sci., 2020, 11,
     e01493. DOI: 10.1002/wcms.1493
   
   for GFN2-xTB:
   * C. Bannwarth, S. Ehlert and S. Grimme., J. Chem. Theory Comput., 2019,
     15, 1652-1671. DOI: 10.1021/acs.jctc.8b01176
   for GFN1-xTB:
   * S. Grimme, C. Bannwarth, P. Shushkov, J. Chem. Theory Comput., 2017,
     13, 1989-2009. DOI: 10.1021/acs.jctc.7b00118
   for GFN0-xTB:
   * P. Pracht, E. Caldeweyher, S. Ehlert, S. Grimme, ChemRxiv, 2019, preprint.
     DOI: 10.26434/chemrxiv.8326202.v1
   for GFN-FF:
   * S. Spicher and S. Grimme, Angew. Chem. Int. Ed., 2020, 59, 15665-15673.
     DOI: 10.1002/anie.202004239
   
   for ALPB and GBSA implicit solvation:
   * S. Ehlert, M. Stahn, S. Spicher, S. Grimme, J. Chem. Theory Comput.,
     2021, 17, 4250-4261. DOI: 10.1021/acs.jctc.1c00471
   
   for DFT-D4:
   * E. Caldeweyher, C. Bannwarth and S. Grimme, J. Chem. Phys., 2017,
     147, 034112. DOI: 10.1063/1.4993215
   * E. Caldeweyher, S. Ehlert, A. Hansen, H. Neugebauer, S. Spicher,
     C. Bannwarth and S. Grimme, J. Chem. Phys., 2019, 150, 154122.
     DOI: 10.1063/1.5090222
   * E. Caldeweyher, J.-M. Mewes, S. Ehlert and S. Grimme, Phys. Chem. Chem. Phys.
     2020, 22, 8499-8512. DOI: 10.1039/D0CP00502A
   
   for sTDA-xTB:
   * S. Grimme and C. Bannwarth, J. Chem. Phys., 2016, 145, 054103.
     DOI: 10.1063/1.4959605
   
   in the mass-spec context:
   * V. Asgeirsson, C. Bauer and S. Grimme, Chem. Sci., 2017, 8, 4879.
     DOI: 10.1039/c7sc00601b
   * J. Koopman and S. Grimme, ACS Omega 2019, 4, 12, 15120-15133.
     DOI: 10.1021/acsomega.9b02011
   
   for metadynamics refer to:
   * S. Grimme, J. Chem. Theory Comput., 2019, 155, 2847-2862
     DOI: 10.1021/acs.jctc.9b00143
   
   for SPH calculations refer to:
   * S. Spicher and S. Grimme, J. Chem. Theory Comput., 2021, 17, 1701-1714
     DOI: 10.1021/acs.jctc.0c01306
   
   with help from (in alphabetical order)
   P. Atkinson, C. Bannwarth, F. Bohle, G. Brandenburg, E. Caldeweyher
   M. Checinski, S. Dohm, S. Ehlert, S. Ehrlich, I. Gerasimov, C. Hölzer
   A. Katbashev, J. Koopman, C. Lavigne, S. Lehtola, F. März, M. Müller,
   F. Musil, H. Neugebauer, J. Pisarek, C. Plett, P. Pracht, F. Pultar,
   J. Seibert, P. Shushkov, S. Spicher, M. Stahn, M. Steiner, T. Strunk,
   J. Stückrath, T. Rose, and J. Unsleber
   
 * started run on 2024/06/05 at 19:58:02.137     

           -------------------------------------------------
          |                Calculation Setup                |
           -------------------------------------------------

          program call               : xtb xtbopt.xyz --opt crude --input .xc2 --gfn2
          hostname                   : n-62-29-9
          coordinate file            : xtbopt.xyz
          omp threads                :                     1

   ID    Z sym.   atoms
    1    6 C      1, 3, 5-7, 10, 11, 14
    2    7 N      2, 4, 9, 13
    3    8 O      8, 12
    4    1 H      15-25

molecular fragmentation (1/2 indicates fragments):
1111111111111111111111121
# atoms in fragment 1/2:    24     1
 fragment masses (1/2) :      194.19        1.01
CMA distance (Bohr)    :  10.605
constraining FC (au)   :  0.0500
########################################################################
[WARNING] Please study the warnings concerning your input carefully
-1- readin_getIntValue: could not parse ''
########################################################################

           -------------------------------------------------
          |                 G F N 2 - x T B                 |
           -------------------------------------------------

        Reference                      10.1021/acs.jctc.8b01176
      * Hamiltonian:
        H0-scaling (s, p, d)           1.850000    2.230000    2.230000
        zeta-weighting                 0.500000
      * Dispersion:
        s8                             2.700000
        a1                             0.520000
        a2                             5.000000
        s9                             5.000000
      * Repulsion:
        kExp                           1.500000    1.000000
        rExp                           1.000000
      * Coulomb:
        alpha                          2.000000
        third order                    shell-resolved
        anisotropic                    true
        a3                             3.000000
        a5                             4.000000
        cn-shift                       1.200000
        cn-exp                         4.000000
        max-rad                        5.000000

q/qsh data taken from xtbrestart
CAMM data taken from xtbrestart

          ...................................................
          :                      SETUP                      :
          :.................................................:
          :  # basis functions                  67          :
          :  # atomic orbitals                  67          :
          :  # shells                           39          :
          :  # electrons                        74          :
          :  max. iterations                   250          :
          :  Hamiltonian                  GFN2-xTB          :
          :  restarted?                       true          :
          :  GBSA solvation                  false          :
          :  PC potential                    false          :
          :  electronic temp.         5000.0000000     K    :
          :  accuracy                    1.0000000          :
          :  -> integral cutoff          0.2500000E+02      :
          :  -> integral neglect         0.1000000E-07      :
          :  -> SCF convergence          0.1000000E-05 Eh   :
          :  -> wf. convergence          0.1000000E-03 e    :
          :  Broyden damping             0.4000000          :
          ...................................................

 iter      E             dE          RMSdq      gap      omega  full diag
   1    -42.6264051 -0.426264E+02  0.265E-05    0.04       0.0  T
   2    -42.6264051  0.781952E-10  0.586E-05    0.04     341.6  T
   3    -42.6264051 -0.921219E-10  0.865E-06    0.04    2312.8  T

   *** convergence criteria satisfied after 3 iterations ***

         #    Occupation            Energy/Eh            Energy/eV
      -------------------------------------------------------------
         1        2.0000           -0.9167243             -24.9453
       ...           ...                  ...                  ...
        31        1.9997           -0.6195399             -16.8585
        32        1.9987           -0.5988661             -16.2960
        33        1.9976           -0.5890132             -16.0279
        34        1.9969           -0.5850076             -15.9189
        35        1.9883           -0.5637405             -15.3402
        36        1.9876           -0.5628216             -15.3152
        37        0.9828           -0.4819368             -13.1142 (HOMO)
        38        0.9354           -0.4804323             -13.0732 (LUMO)
        39        0.1012           -0.4360550             -11.8657
        40        0.0104           -0.3992681             -10.8646
        41        0.0020           -0.3732783             -10.1574
        42        0.0000           -0.2883176              -7.8455
       ...           ...                  ...                  ...
        67                          0.5562845              15.1373
      -------------------------------------------------------------
                  HL-Gap            0.0015045 Eh            0.0409 eV
             Fermi-level           -0.4824805 Eh          -13.1290 eV

 SCC (total)                   0 d,  0 h,  0 min,  0.024 sec
 SCC setup                      ...        0 min,  0.000 sec (  0.921%)
 Dispersion                     ...        0 min,  0.000 sec (  1.206%)
 classical contributions        ...        0 min,  0.000 sec (  0.320%)
 integral evaluation            ...        0 min,  0.005 sec ( 21.755%)
 iterations                     ...        0 min,  0.007 sec ( 27.448%)
 molecular gradient             ...        0 min,  0.011 sec ( 47.715%)
 printout                       ...        0 min,  0.000 sec (  0.587%)

         :::::::::::::::::::::::::::::::::::::::::::::::::::::
         ::                     SUMMARY                     ::
         :::::::::::::::::::::::::::::::::::::::::::::::::::::
         :: total energy             -42.103962132920 Eh    ::
         :: gradient norm              0.004131810674 Eh/a0 ::
         :: HOMO-LUMO gap              0.040940787957 eV    ::
         ::.................................................::
         :: SCC energy               -42.626405102313 Eh    ::
         :: -> isotropic ES            0.138796111627 Eh    ::
         :: -> anisotropic ES         -0.005101022743 Eh    ::
         :: -> anisotropic XC          0.012456789834 Eh    ::
         :: -> dispersion             -0.022792756587 Eh    ::
         :: repulsion energy           0.522367784514 Eh    ::
         :: add. restraining           0.000000000000 Eh    ::
         :: total charge               1.000000000000 e     ::
         :::::::::::::::::::::::::::::::::::::::::::::::::::::

      ----------------------------------------------------------- 
     |                   =====================                   |
     |                        A N C O P T                        |
     |                   =====================                   |
     |               Approximate Normal Coordinate               |
     |                Rational Function Optimizer                |
      ----------------------------------------------------------- 

          ...................................................
          :                      SETUP                      :
          :.................................................:
          :   optimization level             crude          :
          :   max. optcycles                   200          :
          :   ANC micro-cycles                  20          :
          :   degrees of freedom                69          :
          :.................................................:
          :   RF solver                   davidson          :
          :   write xtbopt.log                true          :
          :   linear?                        false          :
          :   energy convergence         0.5000000E-03 Eh   :
          :   grad. convergence          0.1000000E-01 Eh/α :
          :   maxmium RF displ.          1.0000000          :
          :   Hlow (freq-cutoff)         0.1000000E-01      :
          :   Hmax (freq-cutoff)         5.0000000          :
          :   S6 in model hess.         20.0000000          :
          ...................................................

generating ANC from model Hessian ...
Using Lindh-Hessian (1995)
 Shifting diagonal of input Hessian by    1.0574369908008172E-002
 Lowest  eigenvalues of input Hessian
    0.010000    0.010258    0.010376    0.000000    0.000000    0.000000
    0.000000    0.000000    0.000000    0.013340    0.014673    0.016632
    0.019096    0.021075    0.023218    0.024912    0.025727    0.028837
 Highest eigenvalues
    2.129687    2.147343    2.210219    2.293451    2.405242    2.545800


........................................................................
.............................. CYCLE    1 ..............................
........................................................................

 iter      E             dE          RMSdq      gap      omega  full diag
   1    -42.6264051 -0.426264E+02  0.533E-06    0.04       0.0  T
   2    -42.6264051  0.206057E-12  0.511E-06    0.04    3914.4  T
   3    -42.6264051 -0.305533E-12  0.361E-06    0.04    5534.6  T
     SCC iter.                  ...        0 min,  0.005 sec
     gradient                   ...        0 min,  0.011 sec
 * total energy  :   -42.1039621 Eh     change       -0.1634248E-12 Eh
   gradient norm :     0.0041319 Eh/α   predicted     0.0000000E+00 (-100.00%)
   displ. norm   :     0.1327977 α      lambda       -0.2423043E-03
   maximum displ.:     0.1144633 α      in ANC's #1, #3, #6, ...

   *** GEOMETRY OPTIMIZATION CONVERGED AFTER 1 ITERATIONS ***

------------------------------------------------------------------------
 total energy gain   :        -0.0000000 Eh       -0.0000 kcal/mol
 total RMSD          :         0.0000001 a0        0.0000 Å
 total power (kW/mol):        -0.0000000 (step)   -0.0000 (real)
------------------------------------------------------------------------

 ANCopt (total)                0 d,  0 h,  0 min,  0.030 sec
 optimizer setup                ...        0 min,  0.000 sec (  1.100%)
 model hessian                  ...        0 min,  0.006 sec ( 19.542%)
 ANC generation                 ...        0 min,  0.001 sec (  3.171%)
 coordinate transformation      ...        0 min,  0.000 sec (  0.029%)
 single point calculation       ...        0 min,  0.021 sec ( 69.739%)
 optimization log               ...        0 min,  0.002 sec (  5.530%)
 hessian update                 ...        0 min,  0.000 sec (  0.005%)
 rational function              ...        0 min,  0.000 sec (  0.321%)

================
 final structure:
================
25
 xtb: 6.6.1 (8d0f1dd)
C            3.28579903005537        1.26875364797596        0.07267167294404
N            2.38196079468075        0.14961820668776        0.03277679329608
C            2.71116566569299       -1.13733303103217        0.03144906345143
N            1.59792057279289       -1.89994635265738        0.01085986975277
C            0.51215251730026       -1.06004829148150       -0.00467912435981
C            1.01105685851079        0.23796993223611        0.00972929675477
C            0.15090394713827        1.39953037400460       -0.00593987882981
O            0.51480408336195        2.55359594987870        0.01052525308182
N           -1.19816484766336        1.02846271361889       -0.04475255054506
C           -2.18195180998083        2.10625751923402       -0.08556581640967
C           -1.73663115749972       -0.22832146594106       -0.05981454810152
O           -2.91099612252963       -0.45403298547266       -0.10404077752248
N           -0.80830064982127       -1.35337336871008       -0.01077710751643
C           -1.33285613911005       -2.58938286435781        0.02281894248574
H            3.85657385906744        1.25955383814591        1.00155664979695
H            3.97975725710319        1.22615591339719       -0.76617975837484
H            2.70450063336055        2.18873684588816        0.01867877401125
H            3.71268725340745       -1.52040111529932        0.04439196976550
H           -1.64545056372140        3.05105011827026       -0.05774500691757
H           -2.77171491409042        2.03296915067094       -0.99825976253263
H           -2.85234282248131        2.02671486287562        0.76856670917253
H           -0.70137764443664       -3.45042765604729        0.10364033226306
H           -2.40862020964135       -2.67821264191214        0.03771850704856
H           -4.29593467643588       -3.43026969580882        0.00455795450649
H            1.58549059903994       -2.90938106256374       -0.00101583932126

 Bond Distances (Angstroems)
 ---------------------------
C1-N2=1.4391         C1-H15=1.0903        C1-H16=1.0895        C1-H17=1.0896        N2-C1=1.4391         N2-C3=1.3284         
N2-C6=1.3739         C3-N2=1.3284         C3-N4=1.3496         C3-H18=1.0724        N4-C3=1.3496         N4-C5=1.3728         
N4-H25=1.0096        C5-N4=1.3728         C5-C6=1.3907         C5-N13=1.3527        C6-N2=1.3739         C6-C5=1.3907         
C6-C7=1.4455         C7-C6=1.4455         C7-O8=1.2102         C7-N9=1.3997         O8-C7=1.2102         N9-C7=1.3997         
N9-C10=1.4598        N9-C11=1.3674        C10-N9=1.4598        C10-H19=1.0868       C10-H20=1.0891       C10-H21=1.0887       
C11-N9=1.3674        C11-O12=1.1967       C11-N13=1.4594       O12-C11=1.1967       N13-C5=1.3527        N13-C11=1.4594       
N13-C14=1.3431       C14-N13=1.3431       C14-H22=1.0708       C14-H23=1.0795       H15-C1=1.0903        H16-C1=1.0895        
H17-C1=1.0896        H18-C3=1.0724        H19-C10=1.0868       H20-C10=1.0891       H21-C10=1.0887       H22-C14=1.0708       
H23-C14=1.0795       H25-N4=1.0096        
 C  H  Rav=1.0841 sigma=0.0074  Rmin=1.0708  Rmax=1.0903     9
 C  C  Rav=1.4181 sigma=0.0274  Rmin=1.3907  Rmax=1.4455     2
 N  H  Rav=1.0096 sigma=0.0000  Rmin=1.0096  Rmax=1.0096     1
 N  C  Rav=1.3860 sigma=0.0448  Rmin=1.3284  Rmax=1.4598    11
 O  C  Rav=1.2034 sigma=0.0068  Rmin=1.1967  Rmax=1.2102     2

 selected bond angles (degree)
 --------------------
H15-C1-N2=110.23               H16-C1-N2=110.38               H16-C1-H15=108.79              H17-C1-N2=108.67               
H17-C1-H15=109.19              H17-C1-H16=109.55              C3-N2-C1=126.71                C6-N2-C1=125.25                
C6-N2-C3=108.03                N4-C3-N2=110.06                H18-C3-N2=125.28               H18-C3-N4=124.66               
C5-N4-C3=107.87                H25-N4-C3=125.12               H25-N4-C5=127.00               C6-C5-N4=106.69                
N13-C5-N4=129.75               N13-C5-C6=123.55               C5-C6-N2=107.34                C7-C6-N2=130.21                
C7-C6-C5=122.44                O8-C7-C6=125.96                N9-C7-C6=111.15                N9-C7-O8=122.89                
C10-N9-C7=117.04               C11-N9-C7=128.57               C11-N9-C10=114.39              H19-C10-N9=107.96              
H20-C10-N9=109.80              H20-C10-H19=110.32             H21-C10-N9=109.82              H21-C10-H19=110.33             
H21-C10-H20=108.61             

 selected dihedral angles (degree)
 ---------------------------------
C3-N2-C1-H15=297.20           C3-N2-C1-H16= 57.42           C3-N2-C1-H17=177.58           C6-N2-C1-H15=116.14           
C6-N2-C1-H16=236.36           C6-N2-C1-H17=356.52           N4-C3-N2-C1=178.97            N4-C3-N2-C6=359.88            
H18-C3-N2-C1=358.95           H18-C3-N2-C6=179.86           C5-N4-C3-N2=  0.14            C5-N4-C3-H18=180.16           
H25-N4-C3-N2=179.53           H25-N4-C3-H18=359.55          C6-C5-N4-C3=359.90            C6-C5-N4-H25=180.52           
N13-C5-N4-C3=180.91           N13-C5-N4-H25=  1.54          C5-C6-N2-C1=180.94            C5-C6-N2-C3=  0.05            
C7-C6-N2-C1=  1.27            C7-C6-N2-C3=180.37            N2-C6-C5-N4=  0.03            N2-C6-C5-N13=179.09           
C7-C6-C5-N4=179.74            C7-C6-C5-N13=358.80           O8-C7-C6-N2=359.32            O8-C7-C6-C5=179.68            
N9-C7-C6-N2=179.27            N9-C7-C6-C5=359.63            C10-N9-C7-C6=180.94           C10-N9-C7-O8=  0.89           
C11-N9-C7-C6=  0.41           C11-N9-C7-O8=180.36           H19-C10-N9-C7=358.90          H19-C10-N9-C11=179.36         
H20-C10-N9-C7=119.21          H20-C10-N9-C11=299.67         H21-C10-N9-C7=238.57          H21-C10-N9-C11= 59.02         

 CMA Distance (Angstroems)
 ---------------------------
R(CMA):  5.6122
           -------------------------------------------------
          |                Final Singlepoint                |
           -------------------------------------------------

          ...................................................
          :                      SETUP                      :
          :.................................................:
          :  # basis functions                  67          :
          :  # atomic orbitals                  67          :
          :  # shells                           39          :
          :  # electrons                        74          :
          :  max. iterations                   250          :
          :  Hamiltonian                  GFN2-xTB          :
          :  restarted?                      false          :
          :  GBSA solvation                  false          :
          :  PC potential                    false          :
          :  electronic temp.         5000.0000000     K    :
          :  accuracy                    1.0000000          :
          :  -> integral cutoff          0.2500000E+02      :
          :  -> integral neglect         0.1000000E-07      :
          :  -> SCF convergence          0.1000000E-05 Eh   :
          :  -> wf. convergence          0.1000000E-03 e    :
          :  Broyden damping             0.4000000          :
          ...................................................

 iter      E             dE          RMSdq      gap      omega  full diag
   1    -42.6264051 -0.426264E+02  0.209E-06    0.04       0.0  T
   2    -42.6264051  0.312639E-12  0.344E-06    0.04    5814.9  T
   3    -42.6264051 -0.255795E-12  0.112E-06    0.04   17823.0  T

   *** convergence criteria satisfied after 3 iterations ***

         #    Occupation            Energy/Eh            Energy/eV
      -------------------------------------------------------------
         1        2.0000           -0.9167243             -24.9453
       ...           ...                  ...                  ...
        31        1.9997           -0.6195399             -16.8585
        32        1.9987           -0.5988661             -16.2960
        33        1.9976           -0.5890131             -16.0279
        34        1.9969           -0.5850076             -15.9189
        35        1.9883           -0.5637405             -15.3402
        36        1.9876           -0.5628216             -15.3152
        37        0.9828           -0.4819368             -13.1142 (HOMO)
        38        0.9354           -0.4804322             -13.0732 (LUMO)
        39        0.1012           -0.4360550             -11.8657
        40        0.0104           -0.3992681             -10.8646
        41        0.0020           -0.3732783             -10.1574
        42        0.0000           -0.2883176              -7.8455
       ...           ...                  ...                  ...
        67                          0.5562845              15.1373
      -------------------------------------------------------------
                  HL-Gap            0.0015046 Eh            0.0409 eV
             Fermi-level           -0.4824805 Eh          -13.1290 eV

 SCC (total)                   0 d,  0 h,  0 min,  0.021 sec
 SCC setup                      ...        0 min,  0.000 sec (  0.828%)
 Dispersion                     ...        0 min,  0.000 sec (  0.845%)
 classical contributions        ...        0 min,  0.000 sec (  0.316%)
 integral evaluation            ...        0 min,  0.004 sec ( 20.764%)
 iterations                     ...        0 min,  0.005 sec ( 22.825%)
 molecular gradient             ...        0 min,  0.011 sec ( 53.849%)
 printout                       ...        0 min,  0.000 sec (  0.519%)

         :::::::::::::::::::::::::::::::::::::::::::::::::::::
         ::                     SUMMARY                     ::
         :::::::::::::::::::::::::::::::::::::::::::::::::::::
         :: total energy             -42.103962132920 Eh    ::
         :: gradient norm              0.004131838535 Eh/a0 ::
         :: HOMO-LUMO gap              0.040941862119 eV    ::
         ::.................................................::
         :: SCC energy               -42.626405102314 Eh    ::
         :: -> isotropic ES            0.138796194564 Eh    ::
         :: -> anisotropic ES         -0.005101026133 Eh    ::
         :: -> anisotropic XC          0.012456791897 Eh    ::
         :: -> dispersion             -0.022792756930 Eh    ::
         :: repulsion energy           0.522367784514 Eh    ::
         :: add. restraining           0.000000000000 Eh    ::
         :: total charge               1.000000000000 e     ::
         :::::::::::::::::::::::::::::::::::::::::::::::::::::

           -------------------------------------------------
          |                Property Printout                |
           -------------------------------------------------

    * Orbital Energies and Occupations

         #    Occupation            Energy/Eh            Energy/eV
      -------------------------------------------------------------
         1        2.0000           -0.9167243             -24.9453
       ...           ...                  ...                  ...
        25        2.0000           -0.6686966             -18.1962
        26        2.0000           -0.6682148             -18.1830
        27        2.0000           -0.6595878             -17.9483
        28        1.9999           -0.6353011             -17.2874
        29        1.9998           -0.6324235             -17.2091
        30        1.9998           -0.6282103             -17.0945
        31        1.9997           -0.6195399             -16.8585
        32        1.9987           -0.5988661             -16.2960
        33        1.9976           -0.5890131             -16.0279
        34        1.9969           -0.5850076             -15.9189
        35        1.9883           -0.5637405             -15.3402
        36        1.9876           -0.5628216             -15.3152
        37        0.9828           -0.4819368             -13.1142 (HOMO)
        38        0.9354           -0.4804322             -13.0732 (LUMO)
        39        0.1012           -0.4360550             -11.8657
        40        0.0104           -0.3992681             -10.8646
        41        0.0020           -0.3732783             -10.1574
        42        0.0000           -0.2883176              -7.8455
        43                         -0.2133411              -5.8053
        44                         -0.2004770              -5.4553
        45                         -0.1502803              -4.0893
        46                         -0.1341530              -3.6505
        47                         -0.0664059              -1.8070
        48                         -0.0398246              -1.0837
       ...                                ...                  ...
        67                          0.5562845              15.1373
      -------------------------------------------------------------
                  HL-Gap            0.0015046 Eh            0.0409 eV
             Fermi-level           -0.4824805 Eh          -13.1290 eV

     #   Z          covCN         q      C6AA      α(0)
     1   6 C        3.691    -0.097    22.540     6.794
     2   7 N        2.831     0.085    19.774     6.604
     3   6 C        3.051     0.054    26.749     8.482
     4   7 N        2.790    -0.057    22.340     7.020
     5   6 C        3.038     0.093    25.906     8.348
     6   6 C        3.114    -0.017    28.263     8.709
     7   6 C        2.763     0.267    22.503     7.769
     8   8 O        0.858    -0.367    21.029     6.148
     9   7 N        2.744    -0.079    22.771     7.087
    10   6 C        3.713    -0.064    21.865     6.681
    11   6 C        2.733     0.311    21.722     7.630
    12   8 O        0.859    -0.339    20.503     6.071
    13   7 N        2.735     0.008    21.113     6.824
    14   6 C        2.797    -0.059    29.452     8.890
    15   1 H        0.924     0.109     1.707     2.043
    16   1 H        0.925     0.108     1.716     2.048
    17   1 H        0.925     0.140     1.464     1.892
    18   1 H        0.926     0.127     1.555     1.950
    19   1 H        0.925     0.116     1.644     2.005
    20   1 H        0.925     0.098     1.802     2.099
    21   1 H        0.925     0.098     1.799     2.097
    22   1 H        0.926     0.086     1.917     2.165
    23   1 H        0.926     0.132     1.516     1.926
    24   1 H        0.000     0.018     6.895     4.801
    25   1 H        0.860     0.229     0.969     1.542

 Mol. C6AA /au·bohr⁶  :       6809.691136
 Mol. C8AA /au·bohr⁸  :     155485.592383
 Mol. α(0) /au        :        127.628919


Wiberg/Mayer (AO) data.
largest (>0.10) Wiberg bond orders for each atom

 ---------------------------------------------------------------------------
     #   Z sym  total        # sym  WBO       # sym  WBO       # sym  WBO
 ---------------------------------------------------------------------------
     1   6 C    3.912 --     2 N    0.984    16 H    0.960    17 H    0.959
                            15 H    0.957
     2   7 N    3.671 --     3 C    1.385     6 C    1.165     1 C    0.984
     3   6 C    3.840 --     2 N    1.385     4 N    1.287    18 H    0.952
     4   7 N    3.553 --     3 C    1.287     5 C    1.166    25 H    0.918
     5   6 C    3.885 --     6 C    1.336     4 N    1.166    13 N    1.166
     6   6 C    3.857 --     5 C    1.336     2 N    1.165     7 C    1.076
     7   6 C    3.916 --     8 O    1.673     9 N    1.080     6 C    1.076
     8   8 O    1.986 --     7 C    1.673     9 N    0.138
     9   7 N    3.569 --    11 C    1.171     7 C    1.080    10 C    0.963
                            12 O    0.151     8 O    0.138
    10   6 C    3.912 --    19 H    0.968    21 H    0.966    20 H    0.966
                             9 N    0.963
    11   6 C    3.924 --    12 O    1.726     9 N    1.171    13 N    0.933
    12   8 O    2.054 --    11 C    1.726     9 N    0.151
    13   7 N    3.622 --    14 C    1.298     5 C    1.166    11 C    0.933
    14   6 C    3.314 --    13 N    1.298    22 H    0.969    23 H    0.935
    15   1 H    0.985 --     1 C    0.957
    16   1 H    0.985 --     1 C    0.960
    17   1 H    0.980 --     1 C    0.959
    18   1 H    0.983 --     3 C    0.952
    19   1 H    0.985 --    10 C    0.968
    20   1 H    0.987 --    10 C    0.966
    21   1 H    0.987 --    10 C    0.966
    22   1 H    0.991 --    14 C    0.969
    23   1 H    0.982 --    14 C    0.935
    24   1 H    0.026
    25   1 H    0.947 --     4 N    0.918
 ---------------------------------------------------------------------------

Topologies differ in total number of bonds
Writing topology from bond orders to xtbtopo.mol

molecular dipole:
                 x           y           z       tot (Debye)
 q only:        2.714      -1.823       0.065
   full:        3.011      -2.397       0.077       9.786
molecular quadrupole (traceless):
                xx          xy          yy          xz          yz          zz
 q only:       15.863      -6.693       3.124       0.358      -0.486     -18.987
  q+dip:       14.107      -9.919       2.897       0.151      -0.623     -17.004
   full:       12.922      -9.840       1.937       0.085      -0.593     -14.858

           -------------------------------------------------
          |                Geometry Summary                 |
           -------------------------------------------------

      molecular mass/u    :      195.1988581
   center of mass at/Å    :        0.1000921       0.0116424      -0.0089027
  moments of inertia/u·Å² :        0.4755664E+03   0.7340226E+03   0.1203039E+04
rotational constants/cm⁻¹ :        0.3544748E-01   0.2296609E-01   0.1401254E-01

 * 24 selected distances

     #   Z          #   Z                                           value/Å
     1   6 C        2   7 N                                       1.4390899
     2   7 N        3   6 C                                       1.3283905
     3   6 C        4   7 N                                       1.3495621
     4   7 N        5   6 C                                       1.3727938
     2   7 N        6   6 C                                       1.3739415
     5   6 C        6   6 C                                       1.3906706
     6   6 C        7   6 C                                       1.4454520
     7   6 C        8   8 O                                       1.2101909
     7   6 C        9   7 N                                       1.3997088
     9   7 N       10   6 C                                       1.4598440 (max)
     9   7 N       11   6 C                                       1.3673623
    11   6 C       12   8 O                                       1.1966766
     5   6 C       13   7 N                                       1.3526543
    13   7 N       14   6 C                                       1.3431333
     1   6 C       15   1 H                                       1.0902734
     1   6 C       16   1 H                                       1.0895249
     1   6 C       17   1 H                                       1.0895836
     3   6 C       18   1 H                                       1.0723593
    10   6 C       19   1 H                                       1.0868491
    10   6 C       20   1 H                                       1.0891291
    10   6 C       21   1 H                                       1.0887120
    14   6 C       22   1 H                                       1.0708387
    14   6 C       23   1 H                                       1.0795283
     4   7 N       25   1 H                                       1.0095812 (min)

 * 5 distinct bonds (by element types)

   Z      Z             #   av. dist./Å        max./Å        min./Å
   1 H    6 C           9     1.0840887     1.0902734     1.0708387
   6 C    6 C           2     1.4180613     1.4454520     1.3906706
   1 H    7 N           1     1.0095812     1.0095812     1.0095812
   6 C    7 N          10     1.3786480     1.4598440     1.3283905
   6 C    8 O           2     1.2034338     1.2101909     1.1966766


optimized geometry written to: xtbopt.xyz


           -------------------------------------------------
          | TOTAL ENERGY              -42.103962132920 Eh   |
          | GRADIENT NORM               0.004131838535 Eh/α |
          | HOMO-LUMO GAP               0.040941862119 eV   |
           -------------------------------------------------

------------------------------------------------------------------------
 * finished run on 2024/06/05 at 19:58:02.245     
------------------------------------------------------------------------
 total:
 * wall-time:     0 d,  0 h,  0 min,  0.108 sec
 *  cpu-time:     0 d,  0 h,  0 min,  0.086 sec
 * ratio c/w:     0.801 speedup
 SCF:
 * wall-time:     0 d,  0 h,  0 min,  0.024 sec
 *  cpu-time:     0 d,  0 h,  0 min,  0.024 sec
 * ratio c/w:     0.999 speedup
 ANC optimizer:
 * wall-time:     0 d,  0 h,  0 min,  0.057 sec
 *  cpu-time:     0 d,  0 h,  0 min,  0.051 sec
 * ratio c/w:     0.895 speedup

