      -----------------------------------------------------------      
     |                   =====================                   |     
     |                           x T B                           |     
     |                   =====================                   |     
     |                         S. Grimme                         |     
     |          Mulliken Center for Theoretical Chemistry        |     
     |                    University of Bonn                     |     
      -----------------------------------------------------------      

   * xtb version 6.6.1 (8d0f1dd) compiled by 'conda@1efc2f54142f' on 2023-08-01

   xtb is free software: you can redistribute it and/or modify it under
   the terms of the GNU Lesser General Public License as published by
   the Free Software Foundation, either version 3 of the License, or
   (at your option) any later version.
   
   xtb is distributed in the hope that it will be useful,
   but WITHOUT ANY WARRANTY; without even the implied warranty of
   MERCHANTABILITY or FITNESS FOR A PARTICULAR PURPOSE.  See the
   GNU Lesser General Public License for more details.
   
   Cite this work as:
   * C. Bannwarth, E. Caldeweyher, S. Ehlert, A. Hansen, P. Pracht,
     J. Seibert, S. Spicher, S. Grimme, WIREs Comput. Mol. Sci., 2020, 11,
     e01493. DOI: 10.1002/wcms.1493
   
   for GFN2-xTB:
   * C. Bannwarth, S. Ehlert and S. Grimme., J. Chem. Theory Comput., 2019,
     15, 1652-1671. DOI: 10.1021/acs.jctc.8b01176
   for GFN1-xTB:
   * S. Grimme, C. Bannwarth, P. Shushkov, J. Chem. Theory Comput., 2017,
     13, 1989-2009. DOI: 10.1021/acs.jctc.7b00118
   for GFN0-xTB:
   * P. Pracht, E. Caldeweyher, S. Ehlert, S. Grimme, ChemRxiv, 2019, preprint.
     DOI: 10.26434/chemrxiv.8326202.v1
   for GFN-FF:
   * S. Spicher and S. Grimme, Angew. Chem. Int. Ed., 2020, 59, 15665-15673.
     DOI: 10.1002/anie.202004239
   
   for ALPB and GBSA implicit solvation:
   * S. Ehlert, M. Stahn, S. Spicher, S. Grimme, J. Chem. Theory Comput.,
     2021, 17, 4250-4261. DOI: 10.1021/acs.jctc.1c00471
   
   for DFT-D4:
   * E. Caldeweyher, C. Bannwarth and S. Grimme, J. Chem. Phys., 2017,
     147, 034112. DOI: 10.1063/1.4993215
   * E. Caldeweyher, S. Ehlert, A. Hansen, H. Neugebauer, S. Spicher,
     C. Bannwarth and S. Grimme, J. Chem. Phys., 2019, 150, 154122.
     DOI: 10.1063/1.5090222
   * E. Caldeweyher, J.-M. Mewes, S. Ehlert and S. Grimme, Phys. Chem. Chem. Phys.
     2020, 22, 8499-8512. DOI: 10.1039/D0CP00502A
   
   for sTDA-xTB:
   * S. Grimme and C. Bannwarth, J. Chem. Phys., 2016, 145, 054103.
     DOI: 10.1063/1.4959605
   
   in the mass-spec context:
   * V. Asgeirsson, C. Bauer and S. Grimme, Chem. Sci., 2017, 8, 4879.
     DOI: 10.1039/c7sc00601b
   * J. Koopman and S. Grimme, ACS Omega 2019, 4, 12, 15120-15133.
     DOI: 10.1021/acsomega.9b02011
   
   for metadynamics refer to:
   * S. Grimme, J. Chem. Theory Comput., 2019, 155, 2847-2862
     DOI: 10.1021/acs.jctc.9b00143
   
   for SPH calculations refer to:
   * S. Spicher and S. Grimme, J. Chem. Theory Comput., 2021, 17, 1701-1714
     DOI: 10.1021/acs.jctc.0c01306
   
   with help from (in alphabetical order)
   P. Atkinson, C. Bannwarth, F. Bohle, G. Brandenburg, E. Caldeweyher
   M. Checinski, S. Dohm, S. Ehlert, S. Ehrlich, I. Gerasimov, C. Hölzer
   A. Katbashev, J. Koopman, C. Lavigne, S. Lehtola, F. März, M. Müller,
   F. Musil, H. Neugebauer, J. Pisarek, C. Plett, P. Pracht, F. Pultar,
   J. Seibert, P. Shushkov, S. Spicher, M. Stahn, M. Steiner, T. Strunk,
   J. Stückrath, T. Rose, and J. Unsleber
   
 * started run on 2024/06/05 at 19:57:57.333     

           -------------------------------------------------
          |                Calculation Setup                |
           -------------------------------------------------

          program call               : xtb xtbopt.xyz --opt crude --input .xc2 --gfn2
          hostname                   : n-62-12-66
          coordinate file            : xtbopt.xyz
          omp threads                :                     1

   ID    Z sym.   atoms
    1    6 C      1, 3, 5-7, 10, 11, 14
    2    7 N      2, 4, 9, 13
    3    8 O      8, 12
    4    1 H      15-25

molecular fragmentation (1/2 indicates fragments):
1111111122221111112221111
# atoms in fragment 1/2:    18     7
 fragment masses (1/2) :      138.15       57.05
CMA distance (Bohr)    :   9.438
constraining FC (au)   :  0.0500
########################################################################
[WARNING] Please study the warnings concerning your input carefully
-1- readin_getIntValue: could not parse ''
########################################################################

           -------------------------------------------------
          |                 G F N 2 - x T B                 |
           -------------------------------------------------

        Reference                      10.1021/acs.jctc.8b01176
      * Hamiltonian:
        H0-scaling (s, p, d)           1.850000    2.230000    2.230000
        zeta-weighting                 0.500000
      * Dispersion:
        s8                             2.700000
        a1                             0.520000
        a2                             5.000000
        s9                             5.000000
      * Repulsion:
        kExp                           1.500000    1.000000
        rExp                           1.000000
      * Coulomb:
        alpha                          2.000000
        third order                    shell-resolved
        anisotropic                    true
        a3                             3.000000
        a5                             4.000000
        cn-shift                       1.200000
        cn-exp                         4.000000
        max-rad                        5.000000

q/qsh data taken from xtbrestart
CAMM data taken from xtbrestart

          ...................................................
          :                      SETUP                      :
          :.................................................:
          :  # basis functions                  67          :
          :  # atomic orbitals                  67          :
          :  # shells                           39          :
          :  # electrons                        74          :
          :  max. iterations                   250          :
          :  Hamiltonian                  GFN2-xTB          :
          :  restarted?                       true          :
          :  GBSA solvation                  false          :
          :  PC potential                    false          :
          :  electronic temp.         5000.0000000     K    :
          :  accuracy                    1.0000000          :
          :  -> integral cutoff          0.2500000E+02      :
          :  -> integral neglect         0.1000000E-07      :
          :  -> SCF convergence          0.1000000E-05 Eh   :
          :  -> wf. convergence          0.1000000E-03 e    :
          :  Broyden damping             0.4000000          :
          ...................................................

 iter      E             dE          RMSdq      gap      omega  full diag
   1    -42.7669156 -0.427669E+02  0.942E-06    2.25       0.0  T
   2    -42.7669156  0.196820E-11  0.116E-05    2.25    1725.8  T
   3    -42.7669156 -0.465405E-11  0.246E-06    2.25    8119.7  T

   *** convergence criteria satisfied after 3 iterations ***

         #    Occupation            Energy/Eh            Energy/eV
      -------------------------------------------------------------
         1        2.0000           -0.9088026             -24.7298
       ...           ...                  ...                  ...
        31        1.9997           -0.6119561             -16.6522
        32        1.9994           -0.6016607             -16.3720
        33        1.9991           -0.5943838             -16.1740
        34        1.9360           -0.5270204             -14.3410
        35        1.9299           -0.5255482             -14.3009
        36        1.9143           -0.5222228             -14.2104
        37        1.8903           -0.5181152             -14.0986 (HOMO)
        38        0.1684           -0.4352574             -11.8440 (LUMO)
        39        0.1606           -0.4344331             -11.8215
        40        0.0031           -0.3705340             -10.0827
        41        0.0000           -0.2885812              -7.8527
        42        0.0000           -0.2883365              -7.8460
       ...           ...                  ...                  ...
        67                          1.2518972              34.0659
      -------------------------------------------------------------
                  HL-Gap            0.0828578 Eh            2.2547 eV
             Fermi-level           -0.4730431 Eh          -12.8722 eV

 SCC (total)                   0 d,  0 h,  0 min,  0.022 sec
 SCC setup                      ...        0 min,  0.000 sec (  1.237%)
 Dispersion                     ...        0 min,  0.000 sec (  1.176%)
 classical contributions        ...        0 min,  0.000 sec (  0.377%)
 integral evaluation            ...        0 min,  0.004 sec ( 20.773%)
 iterations                     ...        0 min,  0.005 sec ( 23.830%)
 molecular gradient             ...        0 min,  0.011 sec ( 51.953%)
 printout                       ...        0 min,  0.000 sec (  0.619%)

         :::::::::::::::::::::::::::::::::::::::::::::::::::::
         ::                     SUMMARY                     ::
         :::::::::::::::::::::::::::::::::::::::::::::::::::::
         :: total energy             -42.145070133109 Eh    ::
         :: gradient norm              0.003965968289 Eh/a0 ::
         :: HOMO-LUMO gap              2.254675086842 eV    ::
         ::.................................................::
         :: SCC energy               -42.766915596834 Eh    ::
         :: -> isotropic ES            0.115038124550 Eh    ::
         :: -> anisotropic ES         -0.003028630962 Eh    ::
         :: -> anisotropic XC          0.024918282971 Eh    ::
         :: -> dispersion             -0.018366414575 Eh    ::
         :: repulsion energy           0.621799442878 Eh    ::
         :: add. restraining           0.000000000000 Eh    ::
         :: total charge               1.000000000000 e     ::
         :::::::::::::::::::::::::::::::::::::::::::::::::::::

      ----------------------------------------------------------- 
     |                   =====================                   |
     |                        A N C O P T                        |
     |                   =====================                   |
     |               Approximate Normal Coordinate               |
     |                Rational Function Optimizer                |
      ----------------------------------------------------------- 

          ...................................................
          :                      SETUP                      :
          :.................................................:
          :   optimization level             crude          :
          :   max. optcycles                   200          :
          :   ANC micro-cycles                  20          :
          :   degrees of freedom                69          :
          :.................................................:
          :   RF solver                   davidson          :
          :   write xtbopt.log                true          :
          :   linear?                        false          :
          :   energy convergence         0.5000000E-03 Eh   :
          :   grad. convergence          0.1000000E-01 Eh/α :
          :   maxmium RF displ.          1.0000000          :
          :   Hlow (freq-cutoff)         0.1000000E-01      :
          :   Hmax (freq-cutoff)         5.0000000          :
          :   S6 in model hess.         20.0000000          :
          ...................................................

generating ANC from model Hessian ...
Using Lindh-Hessian (1995)
 Shifting diagonal of input Hessian by    1.0005950637554365E-002
 Lowest  eigenvalues of input Hessian
    0.010000    0.000000    0.000000    0.000000    0.000000    0.000000
    0.000000    0.010132    0.010205    0.010462    0.010636    0.011081
    0.011422    0.011536    0.012720    0.015562    0.017303    0.019221
 Highest eigenvalues
    1.904519    2.081902    2.221169    2.386222    2.780726    3.170466


........................................................................
.............................. CYCLE    1 ..............................
........................................................................

 iter      E             dE          RMSdq      gap      omega  full diag
   1    -42.7669156 -0.427669E+02  0.157E-06    2.25       0.0  T
   2    -42.7669156  0.213163E-13  0.116E-06    2.25   17263.2  T
   3    -42.7669156 -0.710543E-13  0.695E-07    2.25   28763.6  T
     SCC iter.                  ...        0 min,  0.005 sec
     gradient                   ...        0 min,  0.010 sec
 * total energy  :   -42.1450701 Eh     change       -0.2842171E-13 Eh
   gradient norm :     0.0039660 Eh/α   predicted     0.0000000E+00 (-100.00%)
   displ. norm   :     0.1954129 α      lambda       -0.5468851E-03
   maximum displ.:     0.1162662 α      in ANC's #8, #11, #6, ...

   *** GEOMETRY OPTIMIZATION CONVERGED AFTER 1 ITERATIONS ***

------------------------------------------------------------------------
 total energy gain   :        -0.0000000 Eh       -0.0000 kcal/mol
 total RMSD          :         0.0000001 a0        0.0000 Å
 total power (kW/mol):        -0.0000000 (step)   -0.0000 (real)
------------------------------------------------------------------------

 ANCopt (total)                0 d,  0 h,  0 min,  0.028 sec
 optimizer setup                ...        0 min,  0.001 sec (  3.318%)
 model hessian                  ...        0 min,  0.004 sec ( 14.244%)
 ANC generation                 ...        0 min,  0.001 sec (  2.701%)
 coordinate transformation      ...        0 min,  0.000 sec (  0.032%)
 single point calculation       ...        0 min,  0.020 sec ( 70.990%)
 optimization log               ...        0 min,  0.002 sec (  7.718%)
 hessian update                 ...        0 min,  0.000 sec (  0.002%)
 rational function              ...        0 min,  0.000 sec (  0.675%)

================
 final structure:
================
25
 xtb: 6.6.1 (8d0f1dd)
C            3.76164253436289        0.88691379045995        0.04425781093791
N            2.79125846643864       -0.16993711355811        0.00531187886385
C            3.02731238813920       -1.46511330886842       -0.07928550493939
N            1.88748525895085       -2.16431259822337       -0.06036071274001
C            0.77590659425631       -1.29353931385401        0.03940637188510
C            1.40416542471894        0.03308318558079        0.09459416450876
C            0.76568468555636        1.18735843827049        0.22469892339410
O            0.10367864278657        2.13301671085456        0.31876938509440
N           -3.26845271809583        1.52734548610117       -0.27645801953121
C           -3.36272035737361        2.92263979082796       -0.15358249723944
C           -3.49841903284487        0.41725392086059        0.06857534236880
O           -3.62555151733878       -0.72129016330083        0.24102060528628
N           -0.45322283704338       -1.53669038567690        0.06779060884436
C           -1.08027202989180       -2.81387738929567        0.01848964473876
H            3.84811253360591        1.29102548283663        1.05619513430358
H            4.73200432103015        0.50628490273308       -0.26765416969650
H            3.46048257952591        1.69434686227213       -0.62432368925646
H            4.00680706892216       -1.89983322866592       -0.15742342778047
H           -2.35396752887813        3.33223685276806       -0.07389158821814
H           -3.83708101120085        3.32603604686426       -1.05030161972146
H           -3.94368991614904        3.21170420917799        0.72440926565134
H           -0.62969073511813       -3.53636514030363        0.70575046512057
H           -1.04293195566141       -3.21882671777728       -0.99623700288138
H           -2.12517220998578       -2.66304700161963        0.28696025114099
H            1.81706286538501       -3.16817477683990       -0.12554000223749

 Bond Distances (Angstroems)
 ---------------------------
C1-N2=1.4353         C1-H15=1.0931        C1-H16=1.0880        C1-H17=1.0907        N2-C1=1.4353         N2-C3=1.3192         
N2-C6=1.4047         C3-N2=1.3192         C3-N4=1.3373         C3-H18=1.0745        N4-C3=1.3373         N4-C5=1.4156         
N4-H25=1.0084        C5-N4=1.4156         C5-C6=1.4689         C5-N13=1.2533        C6-N2=1.4047         C6-C5=1.4689         
C6-C7=1.3255         C7-C6=1.3255         C7-O8=1.1582         O8-C7=1.1582         N9-C10=1.4039        N9-C11=1.1850        
C10-N9=1.4039        C10-H19=1.0917       C10-H20=1.0917       C10-H21=1.0918       C11-N9=1.1850        C11-O12=1.1585       
O12-C11=1.1585       N13-C5=1.2533        N13-C14=1.4237       C14-N13=1.4237       C14-H22=1.0942       C14-H23=1.0932       
C14-H24=1.0893       H15-C1=1.0931        H16-C1=1.0880        H17-C1=1.0907        H18-C3=1.0745        H19-C10=1.0917       
H20-C10=1.0917       H21-C10=1.0918       H22-C14=1.0942       H23-C14=1.0932       H24-C14=1.0893       H25-N4=1.0084        
 C  H  Rav=1.0898 sigma=0.0054  Rmin=1.0745  Rmax=1.0942    10
 C  C  Rav=1.3972 sigma=0.0717  Rmin=1.3255  Rmax=1.4689     2
 N  H  Rav=1.0084 sigma=0.0000  Rmin=1.0084  Rmax=1.0084     1
 N  C  Rav=1.3531 sigma=0.0820  Rmin=1.1850  Rmax=1.4353     9
 O  C  Rav=1.1584 sigma=0.0002  Rmin=1.1582  Rmax=1.1585     2

 selected bond angles (degree)
 --------------------
H15-C1-N2=110.54               H16-C1-N2=109.73               H16-C1-H15=108.92              H17-C1-N2=109.99               
H17-C1-H15=108.40              H17-C1-H16=109.24              C3-N2-C1=127.13                C6-N2-C1=124.02                
C6-N2-C3=108.82                N4-C3-N2=111.09                H18-C3-N2=124.40               H18-C3-N4=124.50               
C5-N4-C3=110.41                H25-N4-C3=125.38               H25-N4-C5=124.20               C6-C5-N4=102.85                
N13-C5-N4=130.72               N13-C5-C6=126.43               C5-C6-N2=106.82                C7-C6-N2=127.43                
C7-C6-C5=125.74                O8-C7-C6=173.90                C11-N9-C10=153.20              H19-C10-N9=108.50              
H20-C10-N9=108.94              H20-C10-H19=108.83             H21-C10-N9=111.67              H21-C10-H19=109.49             
H21-C10-H20=109.36             

 selected dihedral angles (degree)
 ---------------------------------
C3-N2-C1-H15=254.75           C3-N2-C1-H16= 14.89           C3-N2-C1-H17=135.08           C6-N2-C1-H15= 72.73           
C6-N2-C1-H16=192.87           C6-N2-C1-H17=313.07           N4-C3-N2-C1=178.54            N4-C3-N2-C6=  0.31            
H18-C3-N2-C1=358.29           H18-C3-N2-C6=180.06           C5-N4-C3-N2=  0.24            C5-N4-C3-H18=180.49           
H25-N4-C3-N2=179.13           H25-N4-C3-H18=359.38          C6-C5-N4-C3=359.35            C6-C5-N4-H25=180.45           
N13-C5-N4-C3=178.87           N13-C5-N4-H25=359.97          C5-C6-N2-C1=180.99            C5-C6-N2-C3=359.29            
C7-C6-N2-C1=  0.04            C7-C6-N2-C3=178.34            N2-C6-C5-N4=  0.81            N2-C6-C5-N13=181.26           
C7-C6-C5-N4=181.74            C7-C6-C5-N13=  2.19           O8-C7-C6-N2=170.81            O8-C7-C6-C5=349.69            
H19-C10-N9-C11=121.96         H20-C10-N9-C11=240.30         H21-C10-N9-C11=  1.20         

 CMA Distance (Angstroems)
 ---------------------------
R(CMA):  4.9946
           -------------------------------------------------
          |                Final Singlepoint                |
           -------------------------------------------------

          ...................................................
          :                      SETUP                      :
          :.................................................:
          :  # basis functions                  67          :
          :  # atomic orbitals                  67          :
          :  # shells                           39          :
          :  # electrons                        74          :
          :  max. iterations                   250          :
          :  Hamiltonian                  GFN2-xTB          :
          :  restarted?                      false          :
          :  GBSA solvation                  false          :
          :  PC potential                    false          :
          :  electronic temp.         5000.0000000     K    :
          :  accuracy                    1.0000000          :
          :  -> integral cutoff          0.2500000E+02      :
          :  -> integral neglect         0.1000000E-07      :
          :  -> SCF convergence          0.1000000E-05 Eh   :
          :  -> wf. convergence          0.1000000E-03 e    :
          :  Broyden damping             0.4000000          :
          ...................................................

 iter      E             dE          RMSdq      gap      omega  full diag
   1    -42.7669156 -0.427669E+02  0.460E-07    2.25       0.0  T
   2    -42.7669156 -0.710543E-13  0.580E-07    2.25   34498.3  T
   3    -42.7669156  0.994760E-13  0.111E-07    2.25  100000.0  T

   *** convergence criteria satisfied after 3 iterations ***

         #    Occupation            Energy/Eh            Energy/eV
      -------------------------------------------------------------
         1        2.0000           -0.9088026             -24.7298
       ...           ...                  ...                  ...
        31        1.9997           -0.6119561             -16.6522
        32        1.9994           -0.6016607             -16.3720
        33        1.9991           -0.5943838             -16.1740
        34        1.9360           -0.5270204             -14.3410
        35        1.9299           -0.5255482             -14.3009
        36        1.9143           -0.5222228             -14.2104
        37        1.8903           -0.5181152             -14.0986 (HOMO)
        38        0.1684           -0.4352574             -11.8440 (LUMO)
        39        0.1606           -0.4344331             -11.8215
        40        0.0031           -0.3705340             -10.0827
        41        0.0000           -0.2885812              -7.8527
        42        0.0000           -0.2883365              -7.8460
       ...           ...                  ...                  ...
        67                          1.2518972              34.0659
      -------------------------------------------------------------
                  HL-Gap            0.0828578 Eh            2.2547 eV
             Fermi-level           -0.4730431 Eh          -12.8722 eV

 SCC (total)                   0 d,  0 h,  0 min,  0.016 sec
 SCC setup                      ...        0 min,  0.000 sec (  1.196%)
 Dispersion                     ...        0 min,  0.000 sec (  1.004%)
 classical contributions        ...        0 min,  0.000 sec (  0.421%)
 integral evaluation            ...        0 min,  0.004 sec ( 23.894%)
 iterations                     ...        0 min,  0.004 sec ( 25.653%)
 molecular gradient             ...        0 min,  0.007 sec ( 47.196%)
 printout                       ...        0 min,  0.000 sec (  0.592%)

         :::::::::::::::::::::::::::::::::::::::::::::::::::::
         ::                     SUMMARY                     ::
         :::::::::::::::::::::::::::::::::::::::::::::::::::::
         :: total energy             -42.145070133109 Eh    ::
         :: gradient norm              0.003965969218 Eh/a0 ::
         :: HOMO-LUMO gap              2.254674487560 eV    ::
         ::.................................................::
         :: SCC energy               -42.766915596834 Eh    ::
         :: -> isotropic ES            0.115038094288 Eh    ::
         :: -> anisotropic ES         -0.003028630815 Eh    ::
         :: -> anisotropic XC          0.024918283026 Eh    ::
         :: -> dispersion             -0.018366414517 Eh    ::
         :: repulsion energy           0.621799442878 Eh    ::
         :: add. restraining           0.000000000000 Eh    ::
         :: total charge               1.000000000000 e     ::
         :::::::::::::::::::::::::::::::::::::::::::::::::::::

           -------------------------------------------------
          |                Property Printout                |
           -------------------------------------------------

    * Orbital Energies and Occupations

         #    Occupation            Energy/Eh            Energy/eV
      -------------------------------------------------------------
         1        2.0000           -0.9088026             -24.7298
       ...           ...                  ...                  ...
        25        2.0000           -0.6494136             -17.6714
        26        2.0000           -0.6426419             -17.4872
        27        2.0000           -0.6409068             -17.4400
        28        1.9999           -0.6398304             -17.4107
        29        1.9997           -0.6145909             -16.7239
        30        1.9997           -0.6128243             -16.6758
        31        1.9997           -0.6119561             -16.6522
        32        1.9994           -0.6016607             -16.3720
        33        1.9991           -0.5943838             -16.1740
        34        1.9360           -0.5270204             -14.3410
        35        1.9299           -0.5255482             -14.3009
        36        1.9143           -0.5222228             -14.2104
        37        1.8903           -0.5181152             -14.0986 (HOMO)
        38        0.1684           -0.4352574             -11.8440 (LUMO)
        39        0.1606           -0.4344331             -11.8215
        40        0.0031           -0.3705340             -10.0827
        41        0.0000           -0.2885812              -7.8527
        42        0.0000           -0.2883365              -7.8460
        43        0.0000           -0.2698178              -7.3421
        44                         -0.1797702              -4.8918
        45                         -0.1460771              -3.9750
        46                         -0.0861701              -2.3448
        47                         -0.0650256              -1.7694
        48                         -0.0509010              -1.3851
       ...                                ...                  ...
        67                          1.2518972              34.0659
      -------------------------------------------------------------
                  HL-Gap            0.0828578 Eh            2.2547 eV
             Fermi-level           -0.4730431 Eh          -12.8722 eV

     #   Z          covCN         q      C6AA      α(0)
     1   6 C        3.691    -0.084    22.289     6.756
     2   7 N        2.800     0.060    20.201     6.675
     3   6 C        2.958     0.078    26.249     8.403
     4   7 N        2.770    -0.092    23.029     7.127
     5   6 C        2.923     0.154    24.660     8.144
     6   6 C        3.042    -0.021    28.479     8.753
     7   6 C        1.844     0.249    25.384     8.139
     8   8 O        0.856    -0.130    16.966     5.522
     9   7 N        1.820    -0.141    24.826     7.383
    10   6 C        3.685    -0.033    21.368     6.618
    11   6 C        1.769     0.311    24.243     7.960
    12   8 O        0.856    -0.256    19.007     5.845
    13   7 N        1.824    -0.206    26.315     7.601
    14   6 C        3.698    -0.042    21.488     6.630
    15   1 H        0.924     0.102     1.769     2.080
    16   1 H        0.925     0.103     1.762     2.076
    17   1 H        0.924     0.100     1.785     2.089
    18   1 H        0.926     0.114     1.665     2.018
    19   1 H        0.924     0.094     1.842     2.123
    20   1 H        0.924     0.096     1.822     2.111
    21   1 H        0.924     0.084     1.939     2.178
    22   1 H        0.924     0.057     2.238     2.339
    23   1 H        0.924     0.075     2.031     2.229
    24   1 H        0.925     0.109     1.705     2.042
    25   1 H        0.860     0.219     1.014     1.577

 Mol. C6AA /au·bohr⁶  :       6673.586011
 Mol. C8AA /au·bohr⁸  :     152851.077948
 Mol. α(0) /au        :        124.418640


Wiberg/Mayer (AO) data.
largest (>0.10) Wiberg bond orders for each atom

 ---------------------------------------------------------------------------
     #   Z sym  total        # sym  WBO       # sym  WBO       # sym  WBO
 ---------------------------------------------------------------------------
     1   6 C    3.934 --     2 N    0.994    16 H    0.973    17 H    0.967
                            15 H    0.960
     2   7 N    3.618 --     3 C    1.400     6 C    1.046     1 C    0.994
                             4 N    0.111
     3   6 C    3.837 --     2 N    1.400     4 N    1.317    18 H    0.949
     4   7 N    3.534 --     3 C    1.317     5 C    1.030    25 H    0.923
                             2 N    0.111    13 N    0.100
     5   6 C    3.926 --    13 N    1.715     6 C    1.033     4 N    1.030
     6   6 C    3.873 --     7 C    1.484     2 N    1.046     5 C    1.033
                             8 O    0.152
     7   6 C    3.693 --     8 O    2.066     6 C    1.484
     8   8 O    2.341 --     7 C    2.066     6 C    0.152
     9   7 N    3.362 --    11 C    1.987    10 C    1.026    12 O    0.348
    10   6 C    3.921 --     9 N    1.026    21 H    0.954    19 H    0.952
                            20 H    0.952
    11   6 C    3.937 --     9 N    1.987    12 O    1.881
    12   8 O    2.271 --    11 C    1.881     9 N    0.348
    13   7 N    3.024 --     5 C    1.715    14 C    1.031     4 N    0.100
    14   6 C    3.938 --    13 N    1.031    24 H    0.958    22 H    0.957
                            23 H    0.947
    15   1 H    0.986 --     1 C    0.960
    16   1 H    0.989 --     1 C    0.973
    17   1 H    0.988 --     1 C    0.967
    18   1 H    0.984 --     3 C    0.949
    19   1 H    0.976 --    10 C    0.952
    20   1 H    0.975 --    10 C    0.952
    21   1 H    0.978 --    10 C    0.954
    22   1 H    0.980 --    14 C    0.957
    23   1 H    0.978 --    14 C    0.947
    24   1 H    0.973 --    14 C    0.958
    25   1 H    0.950 --     4 N    0.923
 ---------------------------------------------------------------------------

Topologies differ in total number of bonds
Writing topology from bond orders to xtbtopo.mol

molecular dipole:
                 x           y           z       tot (Debye)
 q only:        2.921      -0.252      -0.141
   full:        3.288      -0.629      -0.101       8.512
molecular quadrupole (traceless):
                xx          xy          yy          xz          yz          zz
 q only:       22.381     -18.330       5.164       0.681       0.578     -27.545
  q+dip:       23.077     -23.119       6.109      -0.116       1.067     -29.186
   full:       23.252     -21.887       4.257       0.137       1.292     -27.509

           -------------------------------------------------
          |                Geometry Summary                 |
           -------------------------------------------------

      molecular mass/u    :      195.1988581
   center of mass at/Å    :       -0.0893473      -0.0659712       0.0400869
  moments of inertia/u·Å² :        0.5128576E+03   0.1318144E+04   0.1812138E+04
rotational constants/cm⁻¹ :        0.3287001E-01   0.1278891E-01   0.9302622E-02

 * 23 selected distances

     #   Z          #   Z                                           value/Å
     1   6 C        2   7 N                                       1.4353035 (max)
     2   7 N        3   6 C                                       1.3192270
     3   6 C        4   7 N                                       1.3373272
     4   7 N        5   6 C                                       1.4155589
     2   7 N        6   6 C                                       1.4047121
     6   6 C        7   6 C                                       1.3254948
     7   6 C        8   8 O                                       1.1581758
     9   7 N       10   6 C                                       1.4038630
     9   7 N       11   6 C                                       1.1850047
    11   6 C       12   8 O                                       1.1585262
     5   6 C       13   7 N                                       1.2532707
    13   7 N       14   6 C                                       1.4236672
     1   6 C       15   1 H                                       1.0930694
     1   6 C       16   1 H                                       1.0880118
     1   6 C       17   1 H                                       1.0907094
     3   6 C       18   1 H                                       1.0744752
    10   6 C       19   1 H                                       1.0916514
    10   6 C       20   1 H                                       1.0917197
    10   6 C       21   1 H                                       1.0917663
    14   6 C       22   1 H                                       1.0942302
    14   6 C       23   1 H                                       1.0931828
    14   6 C       24   1 H                                       1.0893314
     4   7 N       25   1 H                                       1.0084380 (min)

 * 5 distinct bonds (by element types)

   Z      Z             #   av. dist./Å        max./Å        min./Å
   1 H    6 C          10     1.0898148     1.0942302     1.0744752
   6 C    6 C           1     1.3254948     1.3254948     1.3254948
   1 H    7 N           1     1.0084380     1.0084380     1.0084380
   6 C    7 N           9     1.3531038     1.4353035     1.1850047
   6 C    8 O           2     1.1583510     1.1585262     1.1581758


optimized geometry written to: xtbopt.xyz


           -------------------------------------------------
          | TOTAL ENERGY              -42.145070133109 Eh   |
          | GRADIENT NORM               0.003965969218 Eh/α |
          | HOMO-LUMO GAP               2.254674487560 eV   |
           -------------------------------------------------

------------------------------------------------------------------------
 * finished run on 2024/06/05 at 19:57:57.464     
------------------------------------------------------------------------
 total:
 * wall-time:     0 d,  0 h,  0 min,  0.131 sec
 *  cpu-time:     0 d,  0 h,  0 min,  0.099 sec
 * ratio c/w:     0.755 speedup
 SCF:
 * wall-time:     0 d,  0 h,  0 min,  0.022 sec
 *  cpu-time:     0 d,  0 h,  0 min,  0.022 sec
 * ratio c/w:     0.999 speedup
 ANC optimizer:
 * wall-time:     0 d,  0 h,  0 min,  0.054 sec
 *  cpu-time:     0 d,  0 h,  0 min,  0.047 sec
 * ratio c/w:     0.877 speedup

