25
 energy: -43.834773027516 gnorm: 0.093453448047 xtb: 6.6.1 (8d0f1dd)
C            3.24773658939603        1.18753216876017        0.08688582364404
N            2.31151843903474        0.09755367908640        0.03838157980943
C            2.60802851408178       -1.22513817406311        0.03043235273611
N            1.46309087443693       -1.93254255091930        0.00344602660235
C            0.41860547877080       -1.06478450622933       -0.00836466296369
C            0.94460312347002        0.22588224314449        0.01164108909016
C            0.10961652060281        1.39137483363936       -0.00540163007407
O            0.50084370437955        2.56018043565027       -0.00418607223853
N           -1.25437409128590        1.04257970555487       -0.03110566893006
C           -2.21684741946901        2.14119286577161       -0.04987985412729
C           -1.80042567940750       -0.21993357695456       -0.04761920309646
O           -3.00919495335920       -0.39786422442308       -0.07049341161451
N           -0.91993844758917       -1.33931864285177       -0.03763724177492
C           -1.56019053913579       -2.64333902613625       -0.06225906869984
H            3.72759237139141        1.23492559212238        1.06811050435720
H            4.02002414217742        1.06837821903291       -0.67750004821826
H            2.70071793742445        2.12525941644652       -0.08202281611323
H            3.59825331546568       -1.64685364930135        0.04378004906917
H           -1.66043920293170        3.07727853145561       -0.02545577877488
H           -2.81950560219185        2.07872818974532       -0.95451851271279
H           -2.87104026248890        2.06105010651184        0.81662315918710
H           -1.26022153333650       -3.22183918116356        0.82914756463117
H           -1.23477763018320       -3.20086884605039       -0.95758545069358
H           -2.60424400525850       -2.51198531547167       -0.07552769801208
H            1.40995106134148       -2.93368127713491       -0.00857431982314
25
 energy: -43.838479818194 gnorm: 0.032627942718 xtb: 6.6.1 (8d0f1dd)
C            3.24956878617971        1.19051801705496        0.08887105143638
N            2.31673569447252        0.10513155509583        0.03593631413220
C            2.61626091860897       -1.23376193405974        0.03073074467338
N            1.44581734562073       -1.93609703449691        0.00288945359688
C            0.41116951176044       -1.06344768750611       -0.00922320366161
C            0.93578608651486        0.22573831286216        0.01040306591534
C            0.11180432292594        1.38379388867054       -0.00688904089355
O            0.49467887325362        2.56056991031498       -0.00577132661161
N           -1.26062051568699        1.03722172751007       -0.03161015273757
C           -2.21809763584114        2.13433387823219       -0.04969467300579
C           -1.80734186585647       -0.21300524105278       -0.04772602581190
O           -3.01039775776456       -0.39239742370802       -0.07052144397693
N           -0.92847544740933       -1.32452119675324       -0.03787683528051
C           -1.52953691525580       -2.64241464872769       -0.06156670977638
H            3.73296947807053        1.23790615009999        1.06915380787079
H            4.01738859813432        1.07165809502052       -0.67868017539412
H            2.69661843249142        2.11685495177327       -0.07855254837875
H            3.59737430322858       -1.65560138165449        0.04458447195914
H           -1.64913695804954        3.06164954210841       -0.02524449010738
H           -2.82254278989825        2.08067351539262       -0.95447298615864
H           -2.87403529623480        2.06354878038491        0.81708479867618
H           -1.24451519027825       -3.21651501234470        0.82880208632377
H           -1.21913693560467       -3.19591879806110       -0.95638035328645
H           -2.59819755146974       -2.50328021469111       -0.07520135219043
H            1.38524521342378       -2.93887073524210       -0.00872776605301
25
 energy: -43.838531072899 gnorm: 0.020735454003 xtb: 6.6.1 (8d0f1dd)
C            3.24987833252133        1.19787541324117        0.08692270923512
N            2.32128409371931        0.11577549281619        0.03242621476372
C            2.63287903863101       -1.22956959439051        0.03173537158595
N            1.45342050902157       -1.93758090778546        0.00381999253433
C            0.41540923366555       -1.07300849897060       -0.00822039352782
C            0.93123566491883        0.22166977897505        0.01126570315877
C            0.12093492523061        1.37678763173672       -0.00397605950246
O            0.49714944011794        2.55761605125583       -0.00165355604372
N           -1.25953993619137        1.03308592830355       -0.03035009286166
C           -2.21480323101443        2.13200195047711       -0.04973523444713
C           -1.80242977087927       -0.21394016751896       -0.04715687313449
O           -3.00182272773106       -0.39957073997161       -0.07089021349226
N           -0.92992835096907       -1.32518873776273       -0.03700235991125
C           -1.53511102819310       -2.64329646272537       -0.06172049502421
H            3.72842140624362        1.24066167167066        1.06982572486585
H            4.02231533871941        1.07010524393915       -0.67464562696077
H            2.70473909013854        2.12425077615841       -0.08546186663510
H            3.61071795756016       -1.64024404260353        0.04311310820116
H           -1.66274458046311        3.07081424838995       -0.02514931760998
H           -2.81936631462200        2.07591136227794       -0.95440155876062
H           -2.87254832615836        2.05850760079905        0.81540936068688
H           -1.27898132398150       -3.22302197447111        0.82745081652907
H           -1.25298565237410       -3.20136590170959       -0.95702520900782
H           -2.61877429162030       -2.49338151497221       -0.07593495330906
H            1.41003320904568       -2.94112759093665       -0.00832848007308
25
 energy: -43.839094790119 gnorm: 0.009589995352 xtb: 6.6.1 (8d0f1dd)
C            3.24757303505135        1.19125873075594        0.08785826872409
N            2.31579416391235        0.11222714200045        0.03334432000043
C            2.62314750578704       -1.23252063024091        0.03222327947633
N            1.44546267844079       -1.93614379333768        0.00356004898682
C            0.41135250436759       -1.07002208094791       -0.00844193959476
C            0.92770265963415        0.22417653483012        0.01151759209959
C            0.11949121740496        1.38148967741008       -0.00638105016882
O            0.49428570798748        2.56104770827878       -0.00571137456674
N           -1.26256197471287        1.03771152544599       -0.03185331571829
C           -2.21507406990354        2.13896960508243       -0.04986195645798
C           -1.80607477578089       -0.21135560155466       -0.04775169843615
O           -3.00696774900629       -0.39757693002313       -0.07045128415347
N           -0.93240090163154       -1.32314469813171       -0.03749659497541
C           -1.52614376228582       -2.64638326039864       -0.06139089501255
H            3.73007597566522        1.23135878558779        1.06906650688080
H            4.01761110418435        1.06624790187798       -0.67728018115530
H            2.70299413390739        2.12058115073869       -0.07874086210543
H            3.59893758792742       -1.64885479917251        0.04340179484047
H           -1.65828512687398        3.07543431289128       -0.02588032693964
H           -2.82084849475465        2.08393149428504       -0.95399106237882
H           -2.87123105970863        2.06643164148354        0.81680058611760
H           -1.25240698588406       -3.21767658116865        0.82819539101698
H           -1.22714270061917       -3.19719277619951       -0.95589751529288
H           -2.60861082463563       -2.51721227092636       -0.07546191522150
H            1.40270285686287       -2.93901577234396       -0.00905910470597
25
 energy: -43.839095483540 gnorm: 0.009000873539 xtb: 6.6.1 (8d0f1dd)
C            3.24816317018452        1.19107230112522        0.08781068900555
N            2.31772392773129        0.10845044998822        0.03469570169642
C            2.62107026791357       -1.23538013115384        0.03306215663377
N            1.44483271908314       -1.93616309890218        0.00354283841497
C            0.41360580803450       -1.06886292288953       -0.00885151562602
C            0.93156175652937        0.22439484436547        0.01189811357609
C            0.12116885380038        1.38223591219338       -0.00573029626418
O            0.49378207331027        2.56081061606558       -0.00393863598088
N           -1.26096787721663        1.03615133518307       -0.03126995088086
C           -2.21703361314009        2.13199909133404       -0.04956418160585
C           -1.80483843469728       -0.21258771116364       -0.04779177231996
O           -3.00712179305184       -0.39794650953641       -0.07070391600985
N           -0.92918655973705       -1.32250571370527       -0.03798018655125
C           -1.52996150379182       -2.64030598532441       -0.06196039375928
H            3.73208621829457        1.24205620451609        1.06823531336659
H            4.01869738940072        1.07386904359057       -0.67847281424949
H            2.69626244498428        2.11725374652928       -0.08114937994741
H            3.59755739314923       -1.65606518286677        0.04440785922104
H           -1.65147924237537        3.06211720044330       -0.02445549084005
H           -2.82109043000772        2.07607682119213       -0.95509881590258
H           -2.87398508701918        2.05835693541331        0.81684633862050
H           -1.25492218887784       -3.21294378261085        0.82851750825830
H           -1.22947705033243       -3.19202514475583       -0.95743622959914
H           -2.60564504499214       -2.49741141862311       -0.07574993402581
H            1.39857950815943       -2.93887988418536       -0.00854629397121
25
 energy: -43.839217658473 gnorm: 0.002790297553 xtb: 6.6.1 (8d0f1dd)
C            3.24891951157102        1.19157229415304        0.08867456240582
N            2.31748289109029        0.11093032654669        0.03330326608173
C            2.62284142157137       -1.23311118051806        0.03162523366797
N            1.44557468413200       -1.93540006153056        0.00267651226185
C            0.41299623962063       -1.06974214498446       -0.00924080211126
C            0.92984727570340        0.22454733601959        0.01088671734807
C            0.12108678265826        1.38171210738840       -0.00640076493643
O            0.49293266068333        2.56075376856690       -0.00499935935035
N           -1.26239167073785        1.03639519105773       -0.03153878257117
C           -2.21661628909603        2.13495188981147       -0.04988028303592
C           -1.80548151196905       -0.21244349308649       -0.04745370430901
O           -3.00725884521992       -0.39754807131883       -0.07022120070348
N           -0.93069856022079       -1.32349461039400       -0.03758833695918
C           -1.52937493375196       -2.64412120532404       -0.06116369852810
H            3.73120247609187        1.23671372736309        1.07014501127381
H            4.02023828854854        1.06992626954924       -0.67600500356047
H            2.70234679402247        2.12044350661451       -0.08000968691584
H            3.60027887606331       -1.65014320205119        0.04253177496941
H           -1.65465845587232        3.06751358925531       -0.02589318835703
H           -2.82204502868998        2.08062333118955       -0.95441098399257
H           -2.87332366553321        2.06381697684365        0.81668827041198
H           -1.25706964777812       -3.21890497284763        0.82823683583539
H           -1.23177896221258       -3.19826182796131       -0.95560455007672
H           -2.60733867390674       -2.50444941650288       -0.07498607314257
H            1.40167104856793       -2.93851311161726       -0.00905505444654
25
 energy: -43.839204145992 gnorm: 0.003168720380 xtb: 6.6.1 (8d0f1dd)
C            3.24721099066369        1.19166485877088        0.08632137993036
N            2.31733797753755        0.11045146579388        0.03391425974424
C            2.62327717182757       -1.23382602633448        0.03411541254995
N            1.44558756597291       -1.93618277085659        0.00497413881583
C            0.41297837768135       -1.07070695560367       -0.00768747496060
C            0.92939823651345        0.22381844993049        0.01262132302534
C            0.12288530948585        1.38144566181342       -0.00471530117608
O            0.49500166735475        2.56034750721709       -0.00324057318732
N           -1.26175748214323        1.03689722845354       -0.03096971666074
C           -2.21552476540827        2.13576614553944       -0.04934247109741
C           -1.80481425015750       -0.21171230133590       -0.04787031554036
O           -3.00634140771688       -0.39681337150320       -0.07170826183170
N           -0.93101839984653       -1.32319122935057       -0.03744492157161
C           -1.52933200482957       -2.64389001202366       -0.06261182896234
H            3.73076509040990        1.23725634953147        1.06701553797803
H            4.01667824193330        1.06921158375027       -0.68005003734083
H            2.69895173646355        2.11948005614773       -0.08217404857289
H            3.60065705638534       -1.64999386714830        0.04555339576467
H           -1.65754474954209        3.07098084611048       -0.02400364175525
H           -2.81989798687687        2.08049987688555       -0.95440498178077
H           -2.87258509792710        2.06189077319317        0.81656056748355
H           -1.25665414933221       -3.21731536954902        0.82716991322121
H           -1.23022062476839       -3.19556451812241       -0.95772321231928
H           -2.60838898637978       -2.50724972366908       -0.07714869305111
H            1.40273318803510       -2.93949764141806       -0.00683373744549
25
 energy: -43.839224949161 gnorm: 0.001293543984 xtb: 6.6.1 (8d0f1dd)
C            3.24801005927897        1.19144968287231        0.08845189726781
N            2.31751640276346        0.11045724220687        0.03347488909729
C            2.62286565805484       -1.23374104583619        0.03217688009526
N            1.44545770385476       -1.93575964802753        0.00266563567810
C            0.41307928159445       -1.07026575101216       -0.00902939765039
C            0.92958715337228        0.22429913416741        0.01129408485357
C            0.12247665235431        1.38172048620537       -0.00626404758244
O            0.49368257893211        2.56075434967024       -0.00507751779221
N           -1.26223672315348        1.03649415957342       -0.03162832961774
C           -2.21603015140006        2.13503706399890       -0.04993889073837
C           -1.80507623495035       -0.21219605903319       -0.04759607780025
O           -3.00669565064705       -0.39771696567966       -0.07021235529089
N           -0.93077048005866       -1.32316495172048       -0.03760274896165
C           -1.52969537139465       -2.64343958875717       -0.06122802846887
H            3.73039059731729        1.23645113186197        1.06979014387621
H            4.01894718586216        1.07018349564863       -0.67666469227725
H            2.70045867043320        2.11980685279012       -0.07972636757292
H            3.60017536490643       -1.65048110911463        0.04306664105213
H           -1.65615545409350        3.06907353803465       -0.02571400987619
H           -2.82108660927808        2.07949276644663       -0.95458539085532
H           -2.87245239318152        2.06222814040429        0.81661857206200
H           -1.25610054085891       -3.21628843798145        0.82881885581022
H           -1.23122536516180       -3.19591036145610       -0.95625016570656
H           -2.60809743402407       -2.50568323078364       -0.07486910123813
H            1.40235780481375       -2.93903387825614       -0.00965376710399
25
 energy: -43.839202215881 gnorm: 0.003184226898 xtb: 6.6.1 (8d0f1dd)
C            3.24953166772839        1.19147170173624        0.08720336632633
N            2.31758297358810        0.11084657430609        0.03354277791387
C            2.62210425122046       -1.23312323438046        0.03294840945325
N            1.44516658908155       -1.93488807284885        0.00462999138778
C            0.41287651270476       -1.06959862996413       -0.00829971337419
C            0.92954827288391        0.22508877771471        0.01170529999157
C            0.12133564032962        1.38206900294668       -0.00544212582557
O            0.49135203719664        2.56124973140709       -0.00366699393936
N           -1.26342497800761        1.03600819578726       -0.03102494141576
C           -2.21681615548628        2.13490623491394       -0.04925995510053
C           -1.80586023229731       -0.21293767452813       -0.04765143363784
O           -3.00768241320338       -0.39847785922445       -0.07117280738446
N           -0.93069246849359       -1.32368137276212       -0.03752943471717
C           -1.52957718427111       -2.64439676631219       -0.06236586729432
H            3.73272564691263        1.23835241783471        1.06815773578990
H            4.02070745825512        1.06910698971380       -0.67759446332199
H            2.70349659891808        2.12054900322896       -0.08254765753687
H            3.59960282562881       -1.65037222879940        0.04357394113782
H           -1.65268058596998        3.06615882201474       -0.02474376675340
H           -2.82205760502149        2.08195843301013       -0.95406657931274
H           -2.87405611185458        2.06469871400123        0.81707502947425
H           -1.25780330653847       -3.22025902096892        0.82674917402367
H           -1.23078093161144       -3.19841858773400       -0.95666616749592
H           -2.60677867575167       -2.50444421747361       -0.07713064418858
H            1.40156287939472       -2.93809991739683       -0.00610646294031
25
 energy: -43.839225036016 gnorm: 0.001169686908 xtb: 6.6.1 (8d0f1dd)
C            3.24854533484554        1.19149631812117        0.08772804224338
N            2.31761589382115        0.11047140842927        0.03352953389549
C            2.62249387233822       -1.23356185924202        0.03266055524687
N            1.44535836186887       -1.93538504660529        0.00368522221923
C            0.41301507197880       -1.07004696617975       -0.00863705070461
C            0.92959501334717        0.22461829611410        0.01158633838143
C            0.12237073456221        1.38192587541791       -0.00569072952695
O            0.49302679608005        2.56093181377301       -0.00414490035902
N           -1.26273121324084        1.03641695702627       -0.03127642550656
C           -2.21641304516317        2.13507817842833       -0.04961980727573
C           -1.80532617408449       -0.21235981017381       -0.04764382625942
O           -3.00709101638874       -0.39764194822235       -0.07088125225426
N           -0.93070208267622       -1.32342514560176       -0.03755301826495
C           -1.52958716852528       -2.64403421510740       -0.06180096122157
H            3.73154639131154        1.23746470648993        1.06877876179189
H            4.01929898464550        1.06993488735082       -0.67757218996048
H            2.70134234887365        2.12004008799459       -0.08101357576750
H            3.60000161671485       -1.65046119882124        0.04353691182723
H           -1.65472566219985        3.06788649890336       -0.02508022822398
H           -2.82149558776229        2.08091321903037       -0.95440473060008
H           -2.87346792890839        2.06349951967847        0.81666005005142
H           -1.25698533342548       -3.21878586975130        0.82759891683353
H           -1.23104772189117       -3.19757594701825       -0.95635374523868
H           -2.60726311134035       -2.50498482596978       -0.07597798596801
H            1.40200833055459       -2.93864791784217       -0.00779719409926
25
 energy: -43.827339793210 gnorm: 0.134681365055 xtb: 6.6.1 (8d0f1dd)
C            3.25748450463549        1.20919850701552        0.08909201522014
N            2.32576839897305        0.11882084153048        0.03587746722350
C            2.63758997057451       -1.22779862218106        0.03149025534902
N            1.49089122592917       -1.92910228921589        0.00575344638065
C            0.44267845725246       -1.08085184719526       -0.00855143078531
C            0.96188560266390        0.21384005823194        0.00730994160943
C            0.12309389705567        1.37602668669763       -0.00682871555305
O            0.48913539964012        2.55737786447374       -0.00937239074025
N           -1.25416873631352        1.02208628546051       -0.03155988160669
C           -2.21282642970875        2.12759434566850       -0.04976339082288
C           -1.78021279846517       -0.23750795226805       -0.04797575131048
O           -2.99272889954796       -0.41885518434756       -0.07074860726207
N           -0.90744591331766       -1.37756453128493       -0.03795546475742
C           -1.65039213007463       -2.64733766014385       -0.06426684468718
H            3.74212769505073        1.25583906042117        1.06801137925551
H            4.02868702204750        1.10364319691882       -0.67978699808320
H            2.69983504657764        2.15148767858916       -0.06928626507908
H            3.63153247797587       -1.64135490406782        0.04617265918921
H           -1.64938488308774        3.06161486225104       -0.02545144613601
H           -2.81347209222196        2.06341758301901       -0.95466440173522
H           -2.86406052228148        2.04487862116565        0.81735694862020
H           -1.35113230972011       -3.24307928909239        0.82721149716394
H           -1.32523358817308       -3.22172778319388       -0.95973249234538
H           -2.64480803723472       -2.45930315851424       -0.07620948557509
H            1.44753947381263       -2.93137456205845       -0.00484572226555
25
 energy: -43.835310691101 gnorm: 0.037123034405 xtb: 6.6.1 (8d0f1dd)
C            3.25357123159960        1.20612483573568        0.09072745652664
N            2.32614472703016        0.11649306651981        0.03361259505466
C            2.63885491440240       -1.23130740147789        0.03203385586387
N            1.47082271269249       -1.93499769450157        0.00507334621812
C            0.42657933305203       -1.07881068756732       -0.00974851431175
C            0.94605677809234        0.21491621147146        0.00661565191317
C            0.12317629789892        1.37105576209201       -0.00888374826733
O            0.49074302232046        2.55252782138308       -0.00978857450250
N           -1.25603847969834        1.02256719171751       -0.03212196595729
C           -2.21300511220306        2.12110057725259       -0.04957333564615
C           -1.79100231863541       -0.22519162095636       -0.04804509799528
O           -2.99655094278563       -0.40339088659051       -0.07068173798973
N           -0.91833986105632       -1.35098778896923       -0.03829197220178
C           -1.58966453615965       -2.64889770671543       -0.06300208289619
H            3.74228347079698        1.25338773893582        1.06851497427661
H            4.02022857961250        1.10200252664644       -0.68065371124159
H            2.69546349542735        2.13444526684745       -0.06725673465126
H            3.62420025885082       -1.64268450983555        0.04694768219611
H           -1.64098798570472        3.04684292749297       -0.02529502396350
H           -2.81634990963835        2.06596460675935       -0.95446608754282
H           -2.86708196274328        2.04818425834098        0.81775343879509
H           -1.32419999489893       -3.23922161600626        0.82644149619846
H           -1.29837169129742       -3.21815043262369       -0.95782294628388
H           -2.63801265957811       -2.45294461644650       -0.07575864620239
H            1.42386346466513       -2.93906002162504       -0.00505399612253
25
 energy: -43.834896648266 gnorm: 0.026389568248 xtb: 6.6.1 (8d0f1dd)
C            3.25699799476915        1.21901375141606        0.08915618836396
N            2.33675494961751        0.12342443341990        0.03047144689757
C            2.65968357240288       -1.22215301777302        0.03267952951003
N            1.48550668502726       -1.93830788670975        0.00586836293850
C            0.43229223539030       -1.09110890783015       -0.00885963644330
C            0.94398607636730        0.21101676105440        0.00779078674444
C            0.12873444661513        1.36236053910817       -0.00701116079551
O            0.48777201429526        2.54695327721302       -0.00762880817081
N           -1.25173075601296        1.01219252500764       -0.03121078570629
C           -2.20772624283050        2.11082320951714       -0.04975174181952
C           -1.78636070895355       -0.23478712693137       -0.04749306150429
O           -2.98673915212016       -0.42123158162068       -0.07099866859828
N           -0.91756288915975       -1.35268665211135       -0.03734451132290
C           -1.59567633564009       -2.64390789559439       -0.06301769583389
H            3.74467658984657        1.26426964928386        1.06821857495507
H            4.03032214029198        1.11133272115733       -0.67586953814508
H            2.70676405985538        2.14656587913492       -0.07067335575375
H            3.64192031213235       -1.62789009807228        0.04512157538074
H           -1.65089739025919        3.04707357878998       -0.02525092579869
H           -2.81273738610141        2.05661590534861       -0.95420053725108
H           -2.86466952588909        2.03844806395294        0.81604857187652
H           -1.38105771046776       -3.24060880672426        0.82594626490178
H           -1.35450575291591       -3.21880499127699       -0.95967452362937
H           -2.66910173422935       -2.42628408345792       -0.07652329310223
H            1.45573734001061       -2.94235143842201       -0.00451673642687
25
 energy: -43.836313265011 gnorm: 0.008738658383 xtb: 6.6.1 (8d0f1dd)
C            3.25475631778348        1.21200538841464        0.08925691434022
N            2.33138228671695        0.12034052197472        0.03104918732542
C            2.64858583936070       -1.22641314535574        0.03324261602923
N            1.47509967111192       -1.93634945192462        0.00577759490618
C            0.42744319435296       -1.08646466716182       -0.00899464339323
C            0.94064737312652        0.21473117303301        0.00799918479437
C            0.12673658760653        1.36909530589106       -0.00810153047061
O            0.48550561565288        2.55344849416497       -0.00963896595277
N           -1.25563936989746        1.01898528585542       -0.03202083210318
C           -2.20855016557500        2.12191550009257       -0.04967239889860
C           -1.79048533597647       -0.23099334719465       -0.04808203808858
O           -2.99251322541304       -0.41719041150435       -0.07088159204720
N           -0.92128064337088       -1.35133994062555       -0.03778163925956
C           -1.58544985776963       -2.65073875250606       -0.06291054470054
H            3.74339939502850        1.25299715988216        1.06818403680130
H            4.02590649843110        1.10161539775912       -0.67851925506170
H            2.70353058588583        2.14218021722843       -0.06764745226243
H            3.62814606624894       -1.64130939966163        0.04585387029852
H           -1.64865181758722        3.05747980531900       -0.02554386319444
H           -2.81445802781283        2.06880643548075       -0.95377278823363
H           -2.86462470774256        2.05047798815748        0.81701748872024
H           -1.34447008236026       -3.23716657701845        0.82578817904049
H           -1.31868061085649       -3.21617052022156       -0.95795007634525
H           -2.65580260096294       -2.46059785819801       -0.07640446061400
H            1.44184984606042       -2.93937679400108       -0.00497067036349
25
 energy: -43.836286633014 gnorm: 0.008081902263 xtb: 6.6.1 (8d0f1dd)
C            3.25252415120187        1.21100380758652        0.09011835334444
N            2.33188826378745        0.11747441857021        0.03220781492496
C            2.64661298661451       -1.22925801352914        0.03355800931173
N            1.47330992827786       -1.93673499086912        0.00524149205274
C            0.42916774869699       -1.08546496829519       -0.00960039094161
C            0.94297940042862        0.21431750597757        0.00801611753468
C            0.13095832275271        1.36981929725954       -0.00817699267181
O            0.49121527402748        2.55285292916113       -0.00872483164633
N           -1.25276716500748        1.01989431742220       -0.03179730547028
C           -2.21067847986606        2.11591983088285       -0.04966761945904
C           -1.78847680151282       -0.22851804531687       -0.04799591537738
O           -2.99209201828414       -0.40982800908753       -0.07059719338031
N           -0.91930661438626       -1.34924344962625       -0.03819389755175
C           -1.58695144205639       -2.64467362468543       -0.06294900501130
H            3.74164420689702        1.25920756999258        1.06865604593341
H            4.02179343019519        1.10713286162399       -0.68032499073935
H            2.69234957644096        2.13636177079224       -0.06835072971544
H            3.62655401233868       -1.64579407678383        0.04624432679741
H           -1.64433376571421        3.04645757957285       -0.02508419940075
H           -2.81476871947602        2.05861935168647       -0.95504721344487