72
 energy: 0.000000000000 xtb: 6.6.1 (8d0f1dd)
N           -1.47310934822924        2.74401318561852        2.22063942287560
C           -1.55658894218425        2.16490305624665        1.13274284460745
C           -2.74549225258129        2.05621251263064        0.23826250649470
C           -3.31377583855761        0.64333417511334        0.32332515650284
C           -4.30230195924506        0.24487112428158       -0.58026167086503
C           -4.85238808050968       -1.02286499940159       -0.53363593669082
O           -5.81420026757557       -1.48606047972767       -1.36157895357670
C           -6.39655692584623       -0.60827005826649       -2.29568495601309
C           -4.39972542350640       -1.94646120241305        0.44396933240983
O           -4.98748357557592       -3.16146026488900        0.41085995818162
C           -4.66362171172287       -4.10093865802695        1.40909140816864
C           -3.42072545213514       -1.54561399150247        1.33436558640148
C           -2.88302826362110       -0.26315802838497        1.27400162590187
C           -2.19303818453636        2.30467021687947       -1.18742988123374
C           -1.26651549989641        1.17243380322503       -1.65249445018642
C            0.01082525039567        1.09745464658138       -0.89354811789923
N            0.61779399208289       -0.02034948241203       -0.57705527866251
C            2.00145228921113       -0.02376006609561       -0.15611401051620
C            2.92554961797610       -0.53865287672537       -1.27700100652360
C            4.35756883501756       -0.43050761225877       -0.83075552032494
C            5.07346182539911        0.73206415878124       -1.03980975472950
C            6.38628045899965        0.84224449235903       -0.60344828301384
C            7.00047329721665       -0.20824758267940        0.05722314949100
O            8.26703733840855       -0.21011315050632        0.52410948507466
C            9.06912311989339        0.92943609656965        0.31863060963839
C            6.27040022445068       -1.40439766990411        0.28033468609137
O            6.94830004375713       -2.38012947787858        0.92752007684741
C            6.31537376337817       -3.61583233633369        1.15217722400438
C            4.96302840674480       -1.49347485723979       -0.16064431849589
C           -0.05511211878686       -1.29906259857679       -0.62085692079872
C           -3.86758072907722        3.07992629005348        0.58498065642721
C           -4.49286201346546        2.77383518785172        1.94313307512182
C           -3.39165211343248        4.52917708609625        0.54797528556046
H           -4.66030069703099        0.94509076131725       -1.31640581036773
H           -6.85037992114187        0.25803164586058       -1.80468862056629
H           -7.17287509152171       -1.18600121846629       -2.79318183475679
H           -5.66836870040540       -0.26952968819383       -3.04040283452035
H           -4.88416765986127       -3.71589494995018        2.40913564538747
H           -5.29223619720187       -4.96637504833431        1.20969248126828
H           -3.61139846644506       -4.39919876145526        1.35529370415983
H           -3.07077825100221       -2.21868786295666        2.10002682176568
H           -2.14562774333496        0.02067850888151        2.01001363031684
H           -3.02188903413801        2.38238034416975       -1.88813562572432
H           -1.65198546223364        3.25146730843841       -1.20556295755141
H           -1.81103391047759        0.23006526775522       -1.62116316669324
H           -0.99335697743926        1.37490224954061       -2.69443281971844
H           -0.67628070635666        1.65183902374723        0.61785732877701
H            0.63525847086258        1.98466388206871       -0.92314029755375
H            2.11132572081740       -0.65949698961381        0.72532619960637
H            2.30680494458141        0.98978260887088        0.11078973822125
H            2.76694224489122        0.06750735773687       -2.17075272340394
H            2.67954606229959       -1.57455642411728       -1.51167757545099
H            4.62170041431221        1.56295626549351       -1.56123593485311
H            6.92357738865082        1.75715832247601       -0.79119604059515
H            8.65159193263071        1.81001840117181        0.81701562739969
H            9.20136256512460        1.14042868409438       -0.74698998879646
H           10.03428931104811        0.69003246578081        0.76064945022918
H            7.05567240429544       -4.23621211097668        1.65347581279537
H            5.43848051513375       -3.50813590722545        1.79970582482858
H            6.02060097762632       -4.09420535105165        0.21253284608183
H            4.40102799328555       -2.40127288651695       -0.00490198294521
H           -0.22071301762289       -1.61775598610935       -1.65116024301020
H           -1.01972267469312       -1.24102728946113       -0.10935207845464
H            0.55899959333766       -2.04486104898380       -0.12333731565713
H           -4.63991918782192        2.95501120214274       -0.18098089750912
H           -3.76095251366987        2.90314731895452        2.73380846416528
H           -4.87457659255110        1.75695657819473        1.97884621460846
H           -5.31925601899505        3.45579242388173        2.12325583951056
H           -2.60025614255587        4.69225089676674        1.27368930043085
H           -3.03987434616939        4.81897697030947       -0.43870979129779
H           -4.22191779840287        5.18069696155015        0.80616701440619
H           -0.59832439338922        2.77744720721660        2.72959009765665
72
 energy: -5.237241468586 xtb: 6.6.1 (8d0f1dd)
N           -1.51744293337773        2.78029148688590        2.23646278676423
C           -1.57108792893631        2.17370869475936        1.14455401222213
C           -2.74922559987578        2.06737032533507        0.23152425790233
C           -3.30505527712216        0.65130713286586        0.31562240587388
C           -4.29340393768431        0.24963655296787       -0.58490499714685
C           -4.84892699229376       -1.01412554759947       -0.53227967035058
O           -5.82054355654895       -1.47785404325092       -1.35921577630816
C           -6.39241365312620       -0.59852742605857       -2.29620011450356
C           -4.40304447422535       -1.93246444585732        0.44842060845801
O           -5.00435368302414       -3.14860569781918        0.42349907969025
C           -4.68152522077840       -4.07986211115189        1.42684341133041
C           -3.42204371161596       -1.53330178608510        1.33582813553993
C           -2.87809099994629       -0.25411229847658        1.26903493498329
C           -2.18516628216461        2.29781551869265       -1.19833557443805
C           -1.25137140040128        1.17976123659498       -1.69356890000945
C            0.02106263071760        1.11736394988392       -0.91781494815660
N            0.64083271058417       -0.04351783069374       -0.57950266652416
C            2.01554118721813       -0.03998804967706       -0.16891996749406
C            2.94621111417998       -0.55247848166340       -1.28573256483763
C            4.37333832018558       -0.44327668723425       -0.84483193280079
C            5.08773767778847        0.72184291443752       -1.04913484816243
C            6.39693751084522        0.83529832477403       -0.60555665499886
C            7.00947593362835       -0.21351155893052        0.05892029073445
O            8.28284118829038       -0.21444456540824        0.53053069724140
C            9.07788006907206        0.92672438339901        0.32190483854881
C            6.28091169128490       -1.40735072782002        0.28297438188891
O            6.96140502281710       -2.38501597192785        0.93662493248766
C            6.32504623986093       -3.61782436457547        1.16040773282335
C            4.97745503728354       -1.50111610313754       -0.16423217585855
C           -0.04231734066477       -1.30950177083553       -0.62770674746018
C           -3.89707724593959        3.06776993001153        0.58986021703468
C           -4.50418564618776        2.74507118370109        1.95257382848236
C           -3.44935966037581        4.52768435968442        0.58337052022153
H           -4.64346571940073        0.94629151135011       -1.32832120357562
H           -6.83723090845602        0.27552094843361       -1.80977822487219
H           -7.17454534079825       -1.17113909003229       -2.79149599896226
H           -5.66104161263904       -0.26872739088891       -3.04178258765946
H           -4.89487647137674       -3.68594278433803        2.42557589485522
H           -5.31663842065550       -4.94274851972347        1.23563569340185
H           -3.63105206673669       -4.38445486256790        1.37253987711481
H           -3.07208229741176       -2.20729129087858        2.10188317984031
H           -2.13076476274070        0.02612305175824        1.99530394389332
H           -3.01383892876546        2.38204311574180       -1.90119116715273
H           -1.63797917948143        3.24154741961414       -1.21815240700737
H           -1.78807426388764        0.23266429882953       -1.64806286063260
H           -1.00867929110808        1.37876121833198       -2.74716888785879
H           -0.68110628085253        1.70738395617207        0.63066757655167
H            0.66159265224844        1.98710979727150       -0.98301520262456
H            2.12818880409705       -0.66622350213527        0.72028653393958
H            2.31050826488501        0.97913808148932        0.09182584297997
H            2.77941057094087        0.05205352406181       -2.17869283020318
H            2.69337408756737       -1.58803354712826       -1.51428479132933
H            4.63356915611133        1.55178651078643       -1.56972442861569
H            6.93441803303563        1.75080707382557       -0.79344923707151
H            8.65607265761898        1.80821972274980        0.81610889652680
H            9.21046034237370        1.13617433775908       -0.74457610856427
H           10.04340157485300        0.69196342907820        0.76623499067134
H            7.06337045871169       -4.23859406454887        1.66505213891977
H            5.44539814952691       -3.50843183924813        1.80408738628036
H            6.03102095097328       -4.09765085973072        0.22084773006994
H            4.41300016516268       -2.40693690803629       -0.00420135368942
H           -0.21003839288996       -1.63243387370780       -1.65976761991405
H           -1.00958155851411       -1.24027012253070       -0.12169505484056
H            0.56409958365843       -2.05645470167896       -0.12293241927568
H           -4.67425689869247        2.95119395767988       -0.17309971401764
H           -3.73705377642539        2.85822345596068        2.71608780461592
H           -4.88907421872804        1.72873323086554        1.97810087774918
H           -5.32373394848690        3.42581900865997        2.16790343388121
H           -2.67531448355603        4.68804323792963        1.32681909699231
H           -3.07587652492220        4.82561406377648       -0.39162345068215
H           -4.28979842958526        5.17436191519617        0.82738432513704
H           -0.63992366823882        2.80028173613481        2.74213732441074
72
 energy: -4.804689041389 xtb: 6.6.1 (8d0f1dd)
N           -1.59728161917989        2.82859394778986        2.25209316605047
C           -1.58416945362649        2.21515083662521        1.14314933577201
C           -2.75379342095625        2.08495185822812        0.21489360254087
C           -3.28610166350503        0.66161415462641        0.29867703798612
C           -4.27633162976109        0.25717749843201       -0.59611678679751
C           -4.84349492310391       -0.99847742543339       -0.53049071988065
O           -5.83175154216259       -1.46083549627967       -1.35418953567790
C           -6.38423874583389       -0.57934922172781       -2.29717005297489
C           -4.40985592871356       -1.90709981625883        0.45704457708923
O           -5.03623717848147       -3.12214842299707        0.44920527742790
C           -4.71602193122107       -4.03911446795625        1.46154062486201
C           -3.42219462865596       -1.51319877099924        1.33758913987033
C           -2.86512776445688       -0.24143605901704        1.25750762551819
C           -2.17442981336306        2.29704333105488       -1.22103951235541
C           -1.23073956544148        1.18617947555003       -1.74233734123366
C            0.04184074387077        1.14130046109312       -0.96059740797815
N            0.67176640425967       -0.07073924058634       -0.58988992882816
C            2.03557458645423       -0.05813567173358       -0.19371618895217
C            2.97922734656915       -0.57641967607042       -1.30068330539056
C            4.39940080661580       -0.46467082466217       -0.86241113746781
C            5.11349379558799        0.70186095523914       -1.06402725026499
C            6.41846222480962        0.82102553031565       -0.61075628565251
C            7.02703468215226       -0.22389847249459        0.06076806095149
O            8.30879722048764       -0.22167972467381        0.54069463077360
C            9.09347668311809        0.92163388784537        0.32788636184984
C            6.30145746473031       -1.41379183680751        0.28666990544500
O            6.98436246869871       -2.39313128392221        0.95220081557497
C            6.34315970497312       -3.62135399293166        1.17586882198955
C            5.00267043711493       -1.51480920363284       -0.16931972173722
C           -0.02382727477770       -1.31982125212857       -0.64455549317671
C           -3.94716215369491        3.04576473224719        0.59844187733267
C           -4.52118691182107        2.68286345474547        1.96861085574109
C           -3.55339196144441        4.52519851631824        0.64549531993146
H           -4.61282529062322        0.94880326314906       -1.35089879906945
H           -6.81277323813957        0.30899226403723       -1.81988660858916
H           -7.17746443468093       -1.14186924559340       -2.78790091230283
H           -5.64730278790759       -0.26779556452937       -3.04553181694429
H           -4.91605839841742       -3.62908627154509        2.45770205563069
H           -5.36368964495290       -4.89682815493134        1.28650365811844
H           -3.66929618707404       -4.35734976945405        1.40567892405628
H           -3.07510005369754       -2.18644131257531        2.10676542532116
H           -2.10396860693356        0.03376414793672        1.97066569030705
H           -3.00200224415073        2.38712390867660       -1.92716760339853
H           -1.61546667272242        3.23523525004445       -1.24349182710136
H           -1.75124922258422        0.22896969476667       -1.69019975803478
H           -1.02915003372872        1.38649516573374       -2.81052675269537
H           -0.68397228774666        1.80038310329948        0.65144804286306
H            0.71338189211186        1.97867108008277       -1.07945003859101
H            2.15728151408755       -0.67269071105278        0.70665326796425
H            2.32250191225124        0.96640124549857        0.05890874838232
H            2.80454428955429        0.02234214134889       -2.19570993624731
H            2.71863020906924       -1.61272104558769       -1.52001570605222
H            4.65652599672399        1.52886979536344       -1.58667233482899
H            6.95512639355474        1.73798809923219       -0.79805600368531
H            8.66530066564359        1.80502627698241        0.81474166946241
H            9.22888280383641        1.12793139954545       -0.73972535762444
H           10.05944786845126        0.69546338719750        0.77682224412115
H            7.07784514933881       -4.24221403034069        1.68690779844595
H            5.45913157205776       -3.50933403658964        1.81340563026588
H            6.05194124282855       -4.10508215965659        0.23679034399639
H            4.43491185112796       -2.41784816931100       -0.00358117198345
H           -0.18987352494660       -1.65711666377811       -1.67688386308373
H           -0.99558142857182       -1.23968470626311       -0.14837290647445
H            0.57093941088469       -2.06857010852625       -0.12569299884310
H           -4.73052778320089        2.93687768170359       -0.15946424424993
H           -3.69944120170784        2.76760672903942        2.68767019461422
H           -4.91871569823537        1.67084767688209        1.97779649672236
H           -5.32400578216065        3.36438761136592        2.24706333481106
H           -2.81965821935811        4.68567646627395        1.42958576572973
H           -3.13789040665402        4.84348486123039       -0.30562708830201
H           -4.41871087330725        5.15403294065143        0.86136713664378
H           -0.71315641237959        2.83830175196715        2.74982946476732
72
 energy: 3.362373711148 xtb: 6.6.1 (8d0f1dd)
N           -1.68675193357524        2.87310855983678        2.26855163246901
C           -1.59464159599263        2.26627484297916        1.13665156693535
C           -2.75830952650764        2.10346538805564        0.19649857955281
C           -3.26465093333291        0.67214346462856        0.28029925736421
C           -4.25710871867832        0.26542982312516       -0.60879925551255
C           -4.83725642952707       -0.98105470208108       -0.52830691719352
O           -5.84412092640552       -1.44140795013900       -1.34867820696257
C           -6.37489259817496       -0.55794154234478       -2.29812697677972
C           -4.41740982232091       -1.87844178214417        0.46694514213373
O           -5.07174636067477       -3.09216850739729        0.47827806439576
C           -4.75448501620260       -3.99318019735562        1.50006193260187
C           -3.42155019672283       -1.49155730050422        1.33969981188652
C           -2.84965017543564       -0.22851620952301        1.24469681528569
C           -2.16405147144210        2.29854108764834       -1.24693457348015
C           -1.20988969231599        1.19090038890572       -1.79117114273590
C            0.06446056094057        1.16714471156443       -1.01066894490265
N            0.70442823094439       -0.09970712483316       -0.60221407570934
C            2.05636546844351       -0.07543871235735       -0.22108904747160
C            3.01486852790772       -0.60254237169710       -1.31717685783263
C            4.42715623149436       -0.48772981719855       -0.87944074868561
C            5.14173751785029        0.67971931565224       -1.07959365494603
C            6.44254666654869        0.80517795175001       -0.61680516012358
C            7.04605920239966       -0.23552526703575        0.06246523234639
O            8.33710547766890       -0.22951406030409        0.55156586669727
C            9.11038605105162        0.91577501385624        0.33449591715962
C            6.32416646666947       -1.42082200513667        0.29050376914828
O            7.00950255293554       -2.40216334687919        0.96922105930076
C            6.36325764314415       -3.62515339861667        1.19298577762088
C            5.03000527249428       -1.52988898537435       -0.17431054291373
C           -0.00398726654194       -1.32989758043802       -0.66440313180444
C           -4.00212583086643        3.02288918851355        0.60945041110195
C           -4.53978802360165        2.61193601732188        1.98660152983484
C           -3.66841355092134        4.52268759244279        0.71400776362451
H           -4.57846645680408        0.95183288303666       -1.37568227452217
H           -6.78564104451855        0.34611313476536       -1.83137923615959
H           -7.18050490917365       -1.10898308984508       -2.78374486872726
H           -5.63224055840955       -0.26696016656286       -3.05001265508556
H           -4.93975426905070       -3.56591539300653        2.49345723383005
H           -5.41612282202277       -4.84498595971754        1.34330389204653
H           -3.71215086792162       -4.32740578927811        1.44269704372930
H           -3.07845296717831       -2.16347127656591        2.11279518783846
H           -2.07399508770218        0.04132285842859        1.94412597372656
H           -2.98924779419754        2.39367422197890       -1.95711549106917
H           -1.59016860759050        3.22950899038641       -1.27268833755670
H           -1.71124473947626        0.22199181841056       -1.73660207009257
H           -1.04973105063440        1.39527770317631       -2.87343989032135
H           -0.68604134828359        1.90922604930662        0.67416268751079
H            0.77119593857280        1.96565642510382       -1.18243093652955
H            2.18959521078279       -0.67839679542605        0.69126069499292
H            2.33712855894475        0.95396381935608        0.02302415969740
H            2.83307114392778       -0.01103442193478       -2.21551593466572
H            2.74638185313566       -1.64000149003825       -1.52629325789400
H            4.68196778360684        1.50303272079120       -1.60566936342382
H            6.97800526610284        1.72372621490054       -0.80359958445876
H            8.67576571906810        1.80149551688296        0.81328820330986
H            9.24973625771037        1.11873189643560       -0.73426970894806
H           10.07690276659534        0.69931928709286        0.78859081712887
H            7.09391907254368       -4.24600543569377        1.71116408105524
H            5.47457755932669       -3.51053793065709        1.82403883706105
H            6.07545802172828       -4.11370835826667        0.25458564942843
H            4.45885822264051       -2.43008054007797       -0.00296823097435
H           -0.16686552083518       -1.68476266421816       -1.69640860158741
H           -0.98073799118085       -1.23948671798147       -0.17928143382765
H            0.57794611563473       -2.08088238942494       -0.12927856156502
H           -4.79064513245599        2.91999052904143       -0.14350373539635
H           -3.66138492482657        2.66584621021887        2.65651219603131
H           -4.95437084700489        1.60646753779294        1.97722217504758
H           -5.32120645559598        3.29461580488132        2.33397715667364
H           -2.98329221463580        4.68444366277009        1.54525535029066
H           -3.20487725129184        4.86427184821178       -0.20853288250864
H           -4.56183974086072        5.13049364479889        0.89586245582721
H           -0.79084389304043        2.87836492807894        2.75031890014292
72
 energy: 18.015534754750 xtb: 6.6.1 (8d0f1dd)
N           -1.76718858004753        2.92048883638448        2.28136500397552
C           -1.61159836552591        2.31038601095200        1.13458752788060
C           -2.76435167780125        2.12219624687238        0.17877216748154
C           -3.24438641814331        0.68301162627033        0.26259984679329
C           -4.23793606116645        0.27376403097927       -0.62191777454121
C           -4.83160938931824       -0.96341728442516       -0.52629454832480
O           -5.85535246107364       -1.42150347422492       -1.34334009952104
C           -6.36565468144296       -0.53646325499999       -2.29936540353900
C           -4.42552857967093       -1.84989469965741        0.47756381755492
O           -5.10577897174637       -3.06154761530109        0.50693484177755
C           -4.79288370241700       -3.94725884968237        1.53875565441244
C           -3.42084458692009       -1.46990031757421        1.34194630296499
C           -2.83404181465947       -0.21540374347470        1.23192314258037
C           -2.15327819718696        2.29832489621399       -1.27188799703738
C           -1.18942666623717        1.19613018536884       -1.84139498116235
C            0.08567601983714        1.19272232383517       -1.06017229110925
N            0.73818590644491       -0.12917553108819       -0.61749183679212
C            2.07907627292448       -0.09312641078231       -0.24810222018692
C            3.05023000332118       -0.62851571211168       -1.33395176990949
C            4.45515811501141       -0.51058827949793       -0.89625846636509
C            5.16973459631147        0.65811971135017       -1.09489659972027
C            6.46623035400491        0.78972791989189       -0.62285440586031
C            7.06527139141645       -0.24690661486227        0.06440983408582
O            8.36466327530293       -0.23724164226362        0.56203376837742
C            9.12747468052921        0.91007072837245        0.34102609647181
C            6.34646269883174       -1.42831524685164        0.29485650616729
O            7.03405961212837       -2.41104528787194        0.98567279520372
C            6.38333522403385       -3.62928097887224        1.21007785742645
C            5.05692971229816       -1.54510506814205       -0.17849834710590
C            0.01626501082372       -1.34152128865054       -0.68416946129894
C           -4.05617016010221        3.00086014021060        0.62255210680705
C           -4.55906758799005        2.54187276672909        2.00412438334641
C           -3.78312765662865        4.51923913384775        0.78355014361606
H           -4.54486165937115        0.95485390003883       -1.40027205372435
H           -6.75863111280261        0.38269753228401       -1.84293091323644
H           -7.18329523370067       -1.07622988053135       -2.77968063794854
H           -5.61759494519208       -0.26600941067641       -3.05465767954463
H           -4.96380531573769       -3.50282075692545        2.52895507050783
H           -5.46852306781835       -4.79264004861431        1.39976236171434
H           -3.75519800365890       -4.29761695144346        1.48019803633129
H           -3.08168119231462       -2.14049486320194        2.11889541737457
H           -2.04420099872344        0.04899009286853        1.91780074196319
H           -2.97542474686207        2.39902700764260       -1.98675598161595
H           -1.56559493438095        3.22226777559603       -1.30170698460029
H           -1.67259116941958        0.21639877190189       -1.78254335309106
H           -1.06670017380771        1.40307279725176       -2.93579594778139
H           -0.68650025512795        2.02351440735439        0.69065830799558
H            0.82454343336090        1.95341785692894       -1.28248326347169
H            2.22111455195452       -0.68388463138208        0.67577314037747
H            2.35251539467341        0.94156589256623       -0.01314048223299
H            2.86217724671872       -0.04438736119449       -2.23573208172226
H            2.77418757932750       -1.66702406299146       -1.53219215810737
H            4.70749450594880        1.47767731322218       -1.62466456779197
H            7.00072326350589        1.70948182351314       -0.80973429948849
H            8.68633719843784        1.79783678968230        0.81195458458457
H            9.27072745583056        1.10960014417484       -0.72877915461596
H           10.09420895062359        0.70283818886177        0.80039605458630
H            7.11021747725189       -4.24969664080123        1.73534967959745
H            5.49018632434151       -3.51189334064676        1.83480742935757
H            6.09896536509245       -4.12263609427775        0.27246488698807
H            4.48280062367032       -2.44273090281795       -0.00205384523447
H           -0.14372128716735       -1.71186943156445       -1.71584363304290
H           -0.96540260471141       -1.23894746318016       -0.21002843091256
H            0.58523063051826       -2.09406424222724       -0.13331261262805
H           -4.84917885009981        2.90398216332196       -0.12629684871759
H           -3.63085828321074        2.56538418187676        2.62833201102292
H           -4.98975043177872        1.54275094686094        1.97486821021478
H           -5.31910877816645        3.22334312637400        2.41703060793764
H           -3.14669466725367        4.68256106668888        1.65868003086713
H           -3.27452174905704        4.88512104744187       -0.10926173914677
H           -4.70260375298336        5.10674198647205        0.93081046597059
H           -0.86361530616979        2.91840978468008        2.75146056927605
72
 energy: 36.697376213243 xtb: 6.6.1 (8d0f1dd)
N           -1.83536616873963        2.96831446858405        2.28925903822841
C           -1.63160538893771        2.35150194347399        1.13255262696785
C           -2.77122679392068        2.14034897201260        0.16224397517931
C           -3.22556637502254        0.69359973976657        0.24591052728042
C           -4.21931671352986        0.28185082104454       -0.63523321309694
C           -4.82671004776581       -0.94578972943224       -0.52438449029244
O           -5.86509525417593       -1.40128619704206       -1.33856695086550
C           -6.35661979990334       -0.51519186598899       -2.30093761024048
C           -4.43413239570635       -1.82154651843772        0.48888210807232
O           -5.13749968528308       -3.03051747378614        0.53459985836537
C           -4.83070787098387       -3.90160708640433        1.57702930356546
C           -3.41997404702638       -1.44865886309869        1.34429866171769
C           -2.81847583299104       -0.20277729304107        1.21939880568922
C           -2.14252630075383        2.29758383484476       -1.29610307778695
C           -1.17059718047039        1.20086768128898       -1.89069936922610
C            0.10436007039319        1.21892402125070       -1.10866280774506
N            0.77316364277355       -0.15954482451819       -0.63656853096665
C            2.10364462756118       -0.11033947433313       -0.27433545967272
C            3.08491213570904       -0.65418539260066       -1.35072111790278
C            4.48296252878546       -0.53280106766152       -0.91186520039788