72
 energy: 0.000000000000 xtb: 6.6.1 (8d0f1dd)
N           -1.47310921155849        2.74401293103706        2.22063921685122
C           -1.55658879776851        2.16490285539332        1.13274273951491
C           -2.74549199786261        2.05621232186130        0.23826248438941
C           -3.31377553111525        0.64333411542669        0.32332512650568
C           -4.30230156009016        0.24487110156316       -0.58026161703006
C           -4.85238763031941       -1.02286490450319       -0.53363588718165
O           -5.81419972815119       -1.48606034185536       -1.36157882725342
C           -6.39655633239252       -0.60827000183299       -2.29568474302620
C           -4.39972501531283       -1.94646102182611        0.44396929121966
O           -4.98748311285188       -3.16145997157803        0.41085992006324
C           -4.66362127904578       -4.10093827755394        1.40909127743729
C           -3.42072513477031       -1.54561384810496        1.33436546260297
C           -2.88302799614223       -0.26315800396994        1.27400150770375
C           -2.19303798107274        2.30467000305896       -1.18742977106749
C           -1.26651538239283        1.17243369445008       -1.65249429687285
C            0.01082524939134        1.09745454476277       -0.89354803499847
N            0.61779393476578       -0.02034948052406       -0.57705522512502
C            2.00145210352228       -0.02376006389122       -0.15611399603240
C            2.92554934655222       -0.53865282675074       -1.27700088804721
C            4.35756843073516       -0.43050757231754       -0.83075544324989
C            5.07346135469827        0.73206409086248       -1.03980965825901
C            6.38627986649936        0.84224441421807       -0.60344822702769
C            7.00047264773336       -0.20824756335880        0.05722314418200
O            8.26703657141718       -0.21011313101264        0.52410943644933
C            9.06912227848686        0.92943601033931        0.31863058007678
C            6.27039964270142       -1.40439753960823        0.28033466008274
O            6.94829939911432       -2.38012925705718        0.92751999079483
C            6.31537317745639       -3.61583200086742        1.15217711710877
C            4.96302794628964       -1.49347471867959       -0.16064430359178
C           -0.05511211367372       -1.29906247805359       -0.62085686319744
C           -3.86758037025447        3.07992600430699        0.58498060215443
C           -4.49286159663096        2.77383493050346        1.94313289484366
C           -3.39165179876499        4.52917666589254        0.54797523472093
H           -4.66030026466202        0.94509067363451       -1.31640568823548
H           -6.85037928558380        0.25803162192116       -1.80468845313260
H           -7.17287442604349       -1.18600110843259       -2.79318157561361
H           -5.66836817451085       -0.26952966318766       -3.04040255244073
H           -4.88416720672258       -3.71589460520039        2.40913542187496
H           -5.29223570620378       -4.96637458756866        1.20969236903657
H           -3.61139813139015       -4.39919835331056        1.35529357841967
H           -3.07077796610445       -2.21868765711333        2.10002662693138
H           -2.14562754426994        0.02067850696302        2.01001344383370
H           -3.02188875377605        2.38238012313952       -1.88813545054866
H           -1.65198530896729        3.25146700677685       -1.20556284570283
H           -1.81103374245520        0.23006524641044       -1.62116301628650
H           -0.99335688527853        1.37490212198123       -2.69443256973690
H           -0.67628064361333        1.65183887049447        0.61785727145403
H            0.63525841192517        1.98466369793744       -0.92314021190751
H            2.11132552493482       -0.65949692842762        0.72532613231274
H            2.30680473056284        0.98978251704176        0.11078972794250
H            2.76694198818247        0.06750735147374       -2.17075252200790
H            2.67954581369920       -1.57455627803457       -1.51167743520200
H            4.62169998552446        1.56295612048703       -1.56123579000624
H            6.92357674630170        1.75715815945204       -0.79119596719031
H            8.65159112996149        1.81001823324363        0.81701555159939
H            9.20136171144928        1.14042857828877       -0.74698991949293
H           10.03428838009630        0.69003240176163        0.76064937965836
H            7.05567174969094       -4.23621171795340        1.65347565939075
H            5.43848001056755       -3.50813558175093        1.79970565785717
H            6.02060041905269       -4.09420497120334        0.21253282636366
H            4.40102758497114       -2.40127266373392       -0.00490198249042
H           -0.22071299714579       -1.61775583601871       -1.65116008982042
H           -1.01972258008625       -1.24102717432227       -0.10935206830928
H            0.55899954147532       -2.04486085926761       -0.12333730421426
H           -4.63991875734388        2.95501092798550       -0.18098088071825
H           -3.76095216473977        2.90314704960906        2.73380821053058
H           -4.87457614030224        1.75695641518947        1.97884603101694
H           -5.31925552549014        3.45579210326349        2.12325564252114
H           -2.60025590131176        4.69225046143352        1.27368918226171
H           -3.03987406413880        4.81897652321898       -0.43870975059559
H           -4.22191740670577        5.18069648090034        0.80616693961239
H           -0.59832433787845        2.77744694953323        2.72958984441332
72
 energy: -5.958300458773 xtb: 6.6.1 (8d0f1dd)
N           -1.54577287736188        2.79468210342018        2.24490384500993
C           -1.57050306239749        2.19640392297711        1.14136926646819
C           -2.75543716682070        2.07900326126114        0.22374474905193
C           -3.29983823193761        0.65590038837110        0.31067143550609
C           -4.29022227359680        0.25112127179007       -0.58654355284492
C           -4.84641314056421       -1.01187559145270       -0.53088868769798
O           -5.82499565515388       -1.47577481431495       -1.35846234604014
C           -6.39195625491960       -0.59693491006501       -2.29513922546207
C           -4.40294699699031       -1.92827900048869        0.44852313965267
O           -5.00954493087155       -3.14829698518893        0.42693904169577
C           -4.68343255814809       -4.07673572239378        1.42869518618711
C           -3.42164066960923       -1.53005756237661        1.33530971715394
C           -2.87660461990269       -0.25103374919679        1.26610581227618
C           -2.18718689805463        2.30450812135845       -1.20542199129845
C           -1.25225495740207        1.18156094158889       -1.69055575448026
C            0.02281309163828        1.13078579919963       -0.93028708253734
N            0.64280283096920       -0.04917324386694       -0.57061717101138
C            2.01143651153895       -0.03958278306759       -0.16904814099033
C            2.94698405518136       -0.55181365598985       -1.28551512211394
C            4.37018060961701       -0.44204415397567       -0.84268570954733
C            5.08727915460582        0.72190341516960       -1.04818463181807
C            6.39709100526214        0.83495185141086       -0.60590689347445
C            7.00651675754471       -0.21398781506459        0.05844684359867
O            8.28418102022037       -0.21410261735268        0.53163891523011
C            9.07681794458441        0.92564953524653        0.32239522004212
C            6.27976590530846       -1.40521496367997        0.28235692228908
O            6.96209221063313       -2.38592452739486        0.93729747069077
C            6.32607905122604       -3.61701418324599        1.16153229692560
C            4.97608878131235       -1.49989847688208       -0.16402519118697
C           -0.04151859686538       -1.30751172599208       -0.62924575940898
C           -3.91250071890653        3.06066083595756        0.58952170666785
C           -4.50801593608830        2.72433418745417        1.95632740026198
C           -3.46224558234518        4.52391493723013        0.59076162107667
H           -4.64130540378742        0.94747110147740       -1.32974548463191
H           -6.83676773004708        0.27803676231155       -1.80969230922945
H           -7.17514026343191       -1.16818990007457       -2.79121346415792
H           -5.66069557611397       -0.26783253068604       -3.04127869913598
H           -4.89491346353136       -3.68408577891848        2.42858720135945
H           -5.31878980725818       -4.94068263249259        1.24047095634001
H           -3.63276926867574       -4.38236310789560        1.37492035598215
H           -3.07280322846148       -2.20403527287118        2.10223081531433
H           -2.13062811272628        0.02796850503587        1.99425664611050
H           -3.01323595072492        2.38636233362271       -1.91111131720519
H           -1.63374193290991        3.24449562399575       -1.22451062599047
H           -1.78775103463035        0.23391934387107       -1.64588538489539
H           -1.01349869037698        1.38199896887163       -2.74382831623424
H           -0.68219916796554        1.74738495153541        0.64639432041842
H            0.66644835411082        1.99016111814925       -0.97866794578242
H            2.12935977931376       -0.66820076090315        0.72086816127910
H            2.30896318368031        0.97836280453804        0.09316983546159
H            2.78104651975270        0.05018227057051       -2.18023743923256
H            2.69158318801558       -1.58739106206800       -1.51449127984722
H            4.63370765434368        1.55018917579553       -1.57164877216138
H            6.93525281529435        1.75035355466166       -0.79306570867362
H            8.65711749102331        1.80884445499689        0.81583433471488
H            9.21198796045366        1.13516888981288       -0.74414933519757
H           10.04293070018282        0.69194445248055        0.76669813321497
H            7.06419165582629       -4.23818200472634        1.66689995259337
H            5.44657828035998       -3.50847236794015        1.80551473592808
H            6.03292612691789       -4.09862609141068        0.22252437660748
H            4.41264078988727       -2.40668523410688       -0.00504980120347
H           -0.20919316153558       -1.63595078114242       -1.66169123174892
H           -1.00890952249388       -1.24029239320055       -0.12408360749154
H            0.56426876637877       -2.05574855629799       -0.12227117758563
H           -4.68743083046590        2.94564136467701       -0.17387394168072
H           -3.72634767845877        2.82265592593903        2.70398266824792
H           -4.89815808192381        1.71179044806654        1.97887906271984
H           -5.32044552254713        3.41165879018867        2.18757220439052
H           -2.69299558665460        4.68494848849990        1.33975101311255
H           -3.08495818788297        4.82788766252529       -0.37985266234866
H           -4.30264151709758        5.17021810044831        0.83132746357027
H           -0.65698791969179        2.80506222444451        2.73813079472075
72
 energy: -5.221982914933 xtb: 6.6.1 (8d0f1dd)
N           -1.59954439434827        2.81699299751116        2.25098966771963
C           -1.58827135569892        2.24578114836354        1.13280103679247
C           -2.76366315549685        2.09870488812680        0.20176500424710
C           -3.28506039321074        0.66424664439420        0.29638741750689
C           -4.27821961454579        0.25616172187850       -0.59624114934729
C           -4.84415309564278       -1.00195319264710       -0.53129838759827
O           -5.83029267440195       -1.46288070100704       -1.35299290838361
C           -6.38774141763814       -0.58514608775732       -2.29549262638033
C           -4.40728939950404       -1.91463444632183        0.45375715700731
O           -5.02697525875594       -3.12929527563984        0.44298516018611
C           -4.70439680618087       -4.05352827625327        1.44931740506285
C           -3.42036672344296       -1.51683376977591        1.33472938617657
C           -2.86587582379390       -0.24111386928644        1.25591997542705
C           -2.17972993886197        2.30816191322601       -1.22830303090108
C           -1.24066022350721        1.18407235855114       -1.71721640399673
C            0.04304968282123        1.13156337916266       -0.96937635257400
N            0.65331128102663       -0.05315216705741       -0.58076832388984
C            2.02248089831284       -0.04716307483817       -0.18050216673105
C            2.96041686524942       -0.56377501126651       -1.29273122816556
C            4.38285200538328       -0.45153874605350       -0.84930739427879
C            5.09989460465002        0.71244005201494       -1.05501686340779
C            6.40845156159800        0.82757636382221       -0.60878863504902
C            7.01723900924564       -0.21921743444041        0.05956315764830
O            8.29416582541885       -0.21710141677146        0.53530917374179
C            9.08553803935798        0.92317573415231        0.32490169366143
C            6.29074807880508       -1.40991797322623        0.28469504246067
O            6.97207733193768       -2.38879378470130        0.94404348332566
C            6.33626242929150       -3.61944806567123        1.17028853497377
C            4.98836104702468       -1.50655401483713       -0.16571357352353
C           -0.03197599173957       -1.31256629597000       -0.63789912648096
C           -3.95553514953681        3.04363395569502        0.59608179471606
C           -4.51946473367467        2.67113839504547        1.96789585475826
C           -3.53114561912183        4.51827726962700        0.63276611653313
H           -4.62527907761971        0.94944913886872       -1.34340647677200
H           -6.82341648632766        0.29679824700985       -1.81476605655956
H           -7.17653307528001       -1.15092533741584       -2.78897710045925
H           -5.65292517022753       -0.26732204600172       -3.04263943254815
H           -4.90810729270043       -3.65225500210668        2.44708825921332
H           -5.34755043082784       -4.91364806282595        1.27015738896023
H           -3.65628370651737       -4.36731048201344        1.39439992794386
H           -3.07467782906078       -2.18897454332220        2.10502851824394
H           -2.11468016384590        0.03346830991859        1.98003643947255
H           -3.00212132783912        2.39081178295197       -1.93723047367126
H           -1.61692552534450        3.24213610208951       -1.24918129155642
H           -1.76891238334435        0.23299493249006       -1.66805631939288
H           -1.02271598886645        1.38497667321338       -2.77678287536927
H           -0.67683988302134        1.84844923591299        0.65097324183546
H            0.68603616410946        1.98996838647396       -1.01420943384827
H            2.14353871082296       -0.67023350399494        0.71381334055139
H            2.31776658086581        0.97247432249539        0.07434066507969
H            2.79565157249417        0.03238650470129       -2.19107186837153
H            2.70512514850969       -1.60048860740611       -1.51661596068433
H            4.64615812624995        1.53903250156849       -1.58043096355704
H            6.94694715315450        1.74286979754102       -0.79604411658401
H            8.66310483583041        1.80674866881754        0.81495222403014
H            9.22295233425892        1.13031418154851       -0.74179279984171
H           10.05143222793922        0.69328353248697        0.77161954232255
H            7.07279744674378       -4.24009309994658        1.67889191611204
H            5.45545479302680       -3.50930974280146        1.81197338561728
H            6.04521142369917       -4.10330146468263        0.23196055636493
H            4.42494145163732       -2.41275940633501       -0.00376393947920
H           -0.19739268499509       -1.64703549526185       -1.66941559766159
H           -1.00161766889107       -1.24056190407332       -0.13839465030377
H            0.56781823110661       -2.06287141701031       -0.12446690868110
H           -4.73012004170833        2.93405332290815       -0.16536443896305
H           -3.70091656360696        2.73811285522299        2.68061290286372
H           -4.92199640208357        1.66574945073242        1.97682615004019
H           -5.31595377563077        3.36206486696336        2.24684590663722
H           -2.78850006929264        4.68223507347791        1.40772571314422
H           -3.12793263109822        4.84144781990615       -0.31868669315437
H           -4.38259011175985        5.15642581847097        0.85291353573070
H           -0.71682766782796        2.84509770068480        2.74926626305565
72
 energy: -3.411987826639 xtb: 6.6.1 (8d0f1dd)
N           -1.65305735024628        2.83659396566643        2.25411497479187
C           -1.60665915821213        2.29256270397661        1.12266947300849
C           -2.77162716300411        2.11739033820846        0.17922799966251
C           -3.27056780083729        0.67243330646323        0.28196721574265
C           -4.26635104689762        0.26107389078997       -0.60616727880025
C           -4.84187074256845       -0.99190067574872       -0.53157880066319
O           -5.83501171653183       -1.44987637413524       -1.34753477006934
C           -6.38351356493826       -0.57375855735467       -2.29598207852931
C           -4.41155490378276       -1.90063813286885        0.45937822864367
O           -5.04394690828185       -3.10982716349092        0.45925502723320
C           -4.72521486060359       -4.03012589104318        1.46999890852161
C           -3.41889535304045       -1.50344369981114        1.33443975223853
C           -2.85502620070514       -0.23125319136144        1.24580903058672
C           -2.17204911411824        2.31167223767635       -1.25150748680566
C           -1.22885139979787        1.18561918241064       -1.74419177023028
C            0.06375005492284        1.13011765977677       -1.01061017349607
N            0.66506491388712       -0.05770730611913       -0.59502364372335
C            2.03373694885130       -0.05389668557468       -0.19339503271857
C            2.97417648366946       -0.57556690239086       -1.30053782240226
C            4.39553337194220       -0.46112479221913       -0.85568224234803
C            5.11243622035247        0.70284805630249       -1.06185050762915
C            6.41978299220971        0.82008667683549       -0.61207212842478
C            7.02780888224993       -0.22449876077775        0.06044868607472
O            8.30392180538051       -0.22012762739912        0.53912081611501
C            9.09412148391304        0.92062509049546        0.32778431795848
C            6.30157887140058       -1.41470505822665        0.28683771848632
O            6.98198075587220       -2.39165307821168        0.95062912698627
C            6.34636556401220       -3.62187071152934        1.17892131083817
C            5.00045789242689       -1.51334711678101       -0.16733290447174
C           -0.02211756282954       -1.31744958887313       -0.64796008071470
C           -3.99677144138769        3.02689711897083        0.60522110433461
C           -4.53078224531116        2.61754326729827        1.97955422177331
C           -3.59980815723561        4.51233029826841        0.67518955176844
H           -4.60933240497115        0.95136207160241       -1.35722077667246
H           -6.81021963794129        0.31520320756426       -1.82041616075333
H           -7.17786035932850       -1.13438451189247       -2.78644432378187
H           -5.64553909881807       -0.26749100674911       -3.04452896873768
H           -4.92120634443955       -3.62051415811230        2.46567180169184
H           -5.37631366943764       -4.88609408390546        1.29952667252302
H           -3.67982297829650       -4.35240076047852        1.41379971296959
H           -3.07642344950042       -2.17363205566728        2.10834747442438
H           -2.09897573722895        0.03918358082657        1.96629636749467
H           -2.99031611032927        2.39451327613306       -1.96385645584474
H           -1.60072434361114        3.23994717935718       -1.27397693453903
H           -1.74979964770407        0.23068277567741       -1.69098044387808
H           -1.03055213245915        1.38821099892523       -2.80895173789553
H           -0.67253049270444        1.95180326455611        0.64929999164814
H            0.70700669128707        1.98728457615999       -1.05027176236660
H            2.15673802148424       -0.67156636819909        0.70526166921986
H            2.32722652749760        0.96729809693909        0.05511192739865
H            2.81090170971641        0.01490611359365       -2.20255484138265
H            2.71843739024414       -1.61329827713104       -1.51914374022123
H            4.65865702585377        1.52753128877657       -1.58979514330929
H            6.95855470438331        1.73524904861781       -0.79958052412292
H            8.66908296112424        1.80474168901433        0.81432308503464
H            9.23414070810773        1.12526492000237       -0.73903798351193
H           10.05956284841759        0.69432775322805        0.77725207242641
H            7.08138334576427       -4.24165063801521        1.69101310789458
H            5.46410033689375       -3.51020147961290        1.81816156824547
H            6.05772360953837       -4.10819596726851        0.24126014213108
H            4.43710723139820       -2.41911779446809       -0.00297987328238
H           -0.18505348631930       -1.65911534814896       -1.67796626386199
H           -0.99414406329863       -1.24018305056524       -0.15389336477910
H            0.57235707122059       -2.06856289210598       -0.12728041702483
H           -4.77082358649435        2.92148028598903       -0.15511414258682
H           -3.68256261101962        2.65085362851309        2.66115579279854
H           -4.94616655287779        1.61978027717968        1.97372987665446
H           -5.31041903051207        3.31075829361656        2.30385257791294
H           -2.88510673881150        4.67952826571544        1.47583830753420
H           -3.17084979717282        4.85612511843288       -0.25593540586958
H           -4.46255116980511        5.14149611958194        0.87354975481336
H           -0.77706107365009        2.88768108613601        2.75848832284894
72
 energy: -0.696521739815 xtb: 6.6.1 (8d0f1dd)
N           -1.70604810860818        2.85362899409495        2.25512659574477
C           -1.62479766643937        2.33717045351028        1.11163592872184
C           -2.77770050678587        2.13268725583859        0.15633104442469
C           -3.25614107264083        0.67928103633052        0.26760151955269
C           -4.25460941709164        0.26543962107588       -0.61631186705668
C           -4.83981949066915       -0.98200499637615       -0.53212595604397
O           -5.83951659571769       -1.43665567008265       -1.34279561010292
C           -6.37970416102188       -0.56235831453121       -2.29706802863390
C           -4.41592626039048       -1.88669255278522        0.46497404103087
O           -5.06051895401180       -3.09019038024716        0.47543506784721
C           -4.74547595014017       -4.00614060549269        1.49091561478409
C           -3.41723836139225       -1.49074857273026        1.33415368320111
C           -2.84415624450532       -0.22240612084636        1.23599396167185
C           -2.16397552036039        2.31406461825508       -1.27471822280885
C           -1.21690723540723        1.18649960483396       -1.77149677666035
C            0.08427655993698        1.12744389348806       -1.05252403155376
N            0.67795510204713       -0.06268446805184       -0.61377663372282
C            2.04512862072625       -0.06022485008129       -0.20689236040325
C            2.98826471082601       -0.58718817041416       -1.30842585927626
C            4.40847056189417       -0.47083735301333       -0.86188782508314
C            5.12514171560816        0.69314690213570       -1.06867699737814
C            6.43131041796355        0.81247442962192       -0.61554727939042
C            7.03852250512572       -0.22988486369863        0.06120571674915
O            8.31376838224953       -0.22315143406714        0.54285139099393
C            9.10273171419832        0.91818428208701        0.33068919972426
C            6.31258251027016       -1.41977637473594        0.28882443651414
O            6.99199538374424       -2.39469091124236        0.95712087904542
C            6.35641843659099       -3.62438977406062        1.18771370806003
C            5.01271550533406       -1.52046691474257       -0.16899219456395
C           -0.01218250196413       -1.32225029157838       -0.65904802708396
C           -4.03607388439717        3.01090670933992        0.61677602471182
C           -4.54139758723670        2.56325727592180        1.99075171667045
C           -3.66841210913944        4.50676805861456        0.71769204918611
H           -4.59323989262872        0.95300622834396       -1.37118785955734
H           -6.79767500852119        0.33351655773568       -1.82689890543318
H           -7.17956701455862       -1.11817826339647       -2.78400852716558
H           -5.63920301033142       -0.26762557597673       -3.04748480692718
H           -4.93381840490132       -3.58794331748887        2.48427410845118
H           -5.40435245215335       -4.85791416428458        1.32922826055813
H           -3.70283611600512       -4.33677707597984        1.43331945816224
H           -3.07785568497420       -2.15899782092567        2.11157560151681
H           -2.08329466809186        0.04436678721096        1.95280881288754
H           -2.97809758111171        2.39770886262917       -1.99034728645925
H           -1.58492772245593        3.23702921118646       -1.29765606710055
H           -1.73091717784769        0.22793495352314       -1.71524028450029
H           -1.03611868150419        1.39149723860291       -2.84038586675598
H           -0.67067658436169        2.05745184377965        0.64324969728492
H            0.72768770212082        1.98350024951882       -1.08573406125618
H            2.16909835410953       -0.67297354876875        0.69574732264912
H            2.33704573327169        0.96228963410881        0.03652913153395
H            2.82662507449470       -0.00216365070427       -2.21404145339372
H            2.73188369652989       -1.62585748454203       -1.52182237918277
H            4.67146365183067        1.51591509843820       -1.59934184523579
H            6.97023278393036        1.72750601490101       -0.80357898275795
H            8.67494294168323        1.80281349918008        0.81362827970284
H            9.24555543142419        1.12026086397268       -0.73623079898771
H           10.06757962709514        0.69544179473397        0.78315842970175
H            7.08989914141134       -4.24299472388144        1.70361409195128
H            5.47263144877384       -3.51095074524143        1.82439238434282
H            6.07031327162622       -4.11353788622412        0.25085962739697
H            4.44958406019412       -2.42604108937539       -0.00278520649622
H           -0.17314035967131       -1.67109611864979       -1.68724191062009
H           -0.98616196220824       -1.23970030090638       -0.16931453816478
H            0.57804065797091       -2.07347044194824       -0.13176829873739
H           -4.80904193984101        2.90922575369724       -0.14349500205259
H           -3.66978956134029        2.56248911764607        2.64451600069789
H           -4.96939227189070        1.57356016590623        1.96879767971119
H           -5.30315613624409        3.25659933751557        2.35951863088339
H           -2.98210218167631        4.67817282872931        1.54271725050026
H           -3.21511809278255        4.87119273201771       -0.19268608507171
H           -4.54250035709635        5.12627754311933        0.89345382552597
H           -0.83751200040155        2.93472832598512        2.76534397402503
72
 energy: 2.753852858337 xtb: 6.6.1 (8d0f1dd)
N           -1.75632462281935        2.87169279430688        2.25211436294972
C           -1.63910325019199        2.38055336070715        1.09945024625676
C           -2.77298311546231        2.13590883318918        0.13333146286238
C           -3.23990939638710        0.68289341150043        0.25227192628474
C           -4.24239665502653        0.26902511191340       -0.62709695366244
C           -4.83813303872160       -0.97226868950208       -0.53251321671707
O           -5.84415262256253       -1.42336305054835       -1.33781702609696
C           -6.37593810689592       -0.55086954211730       -2.29789878187431
C           -4.42080255905697       -1.87303382264074        0.47082092033313
O           -5.07706871121445       -3.07084942803312        0.49189686406545
C           -4.76568180957951       -3.98275317397577        1.51201368443706
C           -3.41603589856139       -1.47906039472756        1.33409444010024
C           -2.83267577324231       -0.21565315641285        1.22600249594381
C           -2.15354425504834        2.31458793989346       -1.29880276591775
C           -1.20363479234371        1.18690435755050       -1.80123906269538
C            0.10531180880539        1.12335760916940       -1.09602735896743
N            0.69131368014679       -0.06739384367197       -0.63526370161073
C            2.05659213408973       -0.06628980143185       -0.22080542612868
C            3.00242305155929       -0.59888057604891       -1.31653878079840
C            4.42140706874910       -0.48049581944528       -0.86780426250586