72
 energy: -99.358393769918 gnorm: 0.001693408807 xtb: 6.6.1 (8d0f1dd)
N           -3.36514589495376        3.20978118272691        2.99670802977121
C           -3.24563712330495        2.06081267826259        2.51146565813524
C           -3.44854261200196        1.76421492192531        1.03737751185129
C           -4.09377064864051        0.40834262335680        0.84137442735276
C           -3.95812037608461       -0.24239321848661       -0.38500708082186
C           -4.56992403789306       -1.46199059268129       -0.62239981080880
O           -4.49730293695390       -2.16132130798444       -1.77512455042708
C           -3.83806653801158       -1.59564406689552       -2.88088637558843
C           -5.34745446207748       -2.06745741390816        0.40324758671797
O           -5.88531751754328       -3.26116409288653        0.09054632839051
C           -6.69189417552556       -3.92202625076774        1.04044260134664
C           -5.49730309716186       -1.39937890765847        1.60955425441179
C           -4.88248362980472       -0.17437516754529        1.82208510578498
C           -1.99655967699746        1.78574836328502        0.66548219877714
C           -1.16808096943065        0.69639541154394        0.71150599429473
C            0.21174885252430        0.80871168925968        0.54522942061307
N            1.08906135543923       -0.19555309829317        0.58795836476068
C            2.50161411289814        0.04406163131212        0.42708618995300
C            3.00011344856720       -0.27580134225371       -0.99668937921515
C            4.48525729653304       -0.05846214151636       -1.07067936322195
C            5.00498183207753        1.18876254051368       -1.38189067645670
C            6.37408244250095        1.40296242833001       -1.40724325831758
C            7.25593451529082        0.37117895751037       -1.11712713320545
O            8.59712641566903        0.46022792303204       -1.10687351801316
C            9.21167851117584        1.69363281169766       -1.40266841951088
C            6.73253226655559       -0.91407774028426       -0.79906409280941
O            7.65742855466170       -1.85698948658709       -0.53832529441883
C            7.24466928125608       -3.16760115954180       -0.23404997396339
C            5.35924384412044       -1.10240241995804       -0.77751796692345
C            0.65209109681504       -1.56434588966960        0.71764770753923
C           -4.30660560286591        2.82079523750601        0.28057189732151
C           -5.68686498271672        2.94218635817373        0.92180640241863
C           -3.66461310619062        4.20207628163439        0.18509777994372
H           -3.36754927670475        0.22340378934551       -1.15814605415071
H           -4.29415531065990       -0.64665363906006       -3.17792534855970
H           -3.94965755386573       -2.31773873006752       -3.68742443572023
H           -2.77316551455747       -1.43836230769798       -2.68019732472707
H           -7.58477814947622       -3.33758895933777        1.28088401882060
H           -6.98805168019461       -4.85753624073717        0.56991588507389
H           -6.13609888166668       -4.13651927968033        1.95822102831436
H           -6.10360153251612       -1.82155122132414        2.39410720328084
H           -5.04050862283395        0.32928262354622        2.76305659118700
H           -1.85481466613216        2.04979308782583       -1.97126789350874
H           -1.56479300216552        2.76149756215388        0.50627090004651
H           -1.60166221634474       -0.27691846895092        0.88783095493121
H           -1.88738280928308        2.18265390300948       -2.74105183812797
H           -2.90416679634393        1.18118711822377        3.07392894048104
H            0.63245510695459        1.79316712233008        0.39609171102916
H            3.04821910769052       -0.57506250730367        1.14442462295297
H            2.71713793627839        1.09046619872704        0.65113692033063
H            2.48789905038151        0.37607743027526       -1.70600003654222
H            2.76053450333409       -1.31106289056351       -1.24297603338760
H            4.34065905549791        2.00611225075838       -1.61738925293932
H            6.74791019387694        2.38212305725133       -1.65810214465122
H            8.91781472504706        2.46860874290600       -0.68857035194789
H            8.97750803723484        2.02419814453723       -2.41875659283220
H           10.28149306204197        1.51253463588166       -1.31929290695892
H            8.16087964033972       -3.73164174191871       -0.07103075943810
H            6.63648506838137       -3.19648289112013        0.67551435721107
H            6.68707620433328       -3.61499156523609       -1.06279799169062
H            4.95524215724205       -2.07436975318246       -0.54122576392784
H            0.05295789396052       -1.86796325968307       -0.14407988922933
H            0.04960737802707       -1.69061732238101        1.61865983977913
H            1.51744552443302       -2.21727354697079        0.78869401720610
H           -4.43588152079348        2.43072624849550       -0.73642860231730
H           -5.59898893134284        3.36529100062496        1.91845173303112
H           -6.17833035687333        1.97449878712295        0.98791886692518
H           -6.31201271061587        3.60037680858204        0.32448056897981
H           -3.37359141503864        4.54863955481300        1.17206066547035
H           -2.80175757454182        4.20553050204517       -0.47635594375223
H           -4.39086378848637        4.90025067652573       -0.22319520188284
H           -3.15687317504752        3.33114785964038        3.98218981805332
