25
 energy: -42.152748300370 gnorm: 0.004529169098 xtb: 6.6.1 (8d0f1dd)
C            2.95771420818623        1.79635223548978        0.09202489260977
N            2.34454801285900        0.71296429459013       -0.11939466812348
C            2.71440097259883       -2.03311633535720       -0.18804346146984
N            1.41743672937079       -1.97340379196290        0.02869606282950
C            0.57666553996198       -0.88423060714688        0.00739814456540
C            1.02460034043644        0.43631344761605       -0.03103772357967
C            0.04958302025096        1.54190866870369       -0.03853615667116
O            0.38788142308318        2.70464984965070       -0.05173910595338
N           -1.27532557481055        1.15925228923136       -0.01767514535427
C           -2.29680911601993        2.19684591765050       -0.03546059719959
C           -1.73738963950494       -0.13519945098526        0.03424690902696
O           -2.90865081591571       -0.39815431758589        0.06162256095009
N           -0.76509877675304       -1.15054618293166        0.05443484169152
C           -1.27507704586100       -2.51146242408147        0.07848876646266
H            3.26214005683257       -1.14361039056544       -0.43877485518549
H            4.00508942200733        1.83448916638221       -0.17193170874403
H            2.50229762387077        2.68958296222671        0.52220014325151
H            3.20042032950671       -2.98901478084689       -0.11974335994439
H           -1.79959318918504        3.16364756574910       -0.06054484955705
H           -2.92978445934342        2.07449945334292       -0.91435442128374
H           -2.92312244320369        2.11548566391633        0.85290776440968
H           -1.02570042322673       -3.01404343033325        1.01586418498938
H           -0.92187443628082       -3.08138167788549       -0.78222229828056
H           -2.36279037751689       -2.44233399611047        0.01808743957459
H            0.93887013275867       -2.85125558715631        0.23465825888557
