72
 energy: -103.312859157727 gnorm: 0.084161839827 xtb: 6.6.1 (8d0f1dd)
N           -1.47950624211886        2.75594350373538        2.22697586303789
C           -1.55962608401890        2.15874372871726        1.14253429057229
C           -2.74900628715321        2.05324080177980        0.24722230978045
C           -3.31671510838082        0.63993897654499        0.33154031809417
C           -4.30051264852486        0.23546054825371       -0.57392119512165
C           -4.84764160168098       -1.03266324857759       -0.52764684204800
O           -5.81093101043170       -1.50106624678447       -1.35976845324732
C           -6.38754385918334       -0.62545608242713       -2.29706696557329
C           -4.39863743869557       -1.95313088721990        0.45347763255227
O           -4.98910829858937       -3.17177688897104        0.41956559063242
C           -4.66501200680334       -4.10697202113233        1.42220158849672
C           -3.42522334440387       -1.54815081234875        1.34586262126874
C           -2.88917094082772       -0.26467935900551        1.28377441453404
C           -2.19782829203281        2.30029668354985       -1.18124816944079
C           -1.26682364971541        1.17531585817584       -1.65820636546020
C            0.00916947423444        1.11285594427382       -0.89716446326379
N            0.64162046475418       -0.02143012018018       -0.58369367355699
C            2.01872292536289       -0.00294835342682       -0.17458997856604
C            2.94669586621628       -0.49106796881238       -1.29914258873657
C            4.37033752807114       -0.40501430956023       -0.84823590624022
C            5.10489233911845        0.74422362441421       -1.05790039491375
C            6.41795284531299        0.83749136632192       -0.61622868003897
C            7.00786797347343       -0.21884726806375        0.05384068006652
O            8.27811562544550       -0.23868379571206        0.52882992343987
C            9.09746987530492        0.88258331267312        0.31785093873274
C            6.25078891839268       -1.39707414889050        0.28283318427862
O            6.91229240113132       -2.37747161584364        0.94717033383268
C            6.25586966661203       -3.59668013567585        1.16450934155695
C            4.93831323496922       -1.46729768041948       -0.15803271944858
C           -0.02276508088757       -1.29689388206630       -0.64960169063685
C           -3.87680043993801        3.06976105095370        0.58835768119866
C           -4.49999983332648        2.76534018231505        1.94991772499713
C           -3.40587300885128        4.52104999381839        0.55055256476102
H           -4.65376508313821        0.93250750739838       -1.31632501462522
H           -6.84208223834484        0.24285601006105       -1.81034537986584
H           -7.16239678024725       -1.20494565555390       -2.79599088753475
H           -5.65630036443889       -0.28845189439062       -3.03971370739543
H           -4.88845358113594       -3.71966877989399        2.42133458442841
H           -5.29149255843044       -4.97410476283136        1.22257961288232
H           -3.61171057049735       -4.40284400841842        1.37281995359884
H           -3.07562285379880       -2.22120391735332        2.11421853709676
H           -2.15337519437574        0.02033979554966        2.02108322471458
H           -3.02927141751269        2.38333906880302       -1.88019022749890
H           -1.65596627387308        3.24628670710096       -1.19574198820050
H           -1.80492718686526        0.23253317134732       -1.62001929034743
H           -1.00662148205741        1.37766213225402       -2.70663621312506
H           -0.68479894684926        1.64155707427124        0.64498235551525
H            0.63314353002031        2.00099193738546       -0.93569135707859
H            2.13730421561126       -0.64951180406730        0.70156761068790
H            2.30271121975456        1.01326670494888        0.10701928657167
H            2.78943681217127        0.13720649400641       -2.17829430339421
H            2.69572152161479       -1.51511340729752       -1.55754534300898
H            4.67111828446546        1.57944900417184       -1.58750308810253
H            6.97385984596252        1.74099737380423       -0.80839296681736
H            8.69422194826354        1.77266318746575        0.80664012801570
H            9.23764305568761        1.08177448887962       -0.74923637329513
H           10.05687694566535        0.63053020202578        0.76670965530616
H            6.96856657666194       -4.21915775524822        1.69636244053803
H            5.37036032012912       -3.46701650911954        1.78470878218500
H            5.97642445739376       -4.08244518954647        0.22447899495634
H            4.34370457699451       -2.36526036278481        0.03140679916188
H           -0.18009778887543       -1.60814617627243       -1.68662625228912
H           -0.99171903294936       -1.24758715252701       -0.14735656112065
H            0.59509710838994       -2.03933949562800       -0.15248964823126
H           -4.65263767273158        2.94242572143858       -0.17574868392032
H           -3.76453433904625        2.89619706558493        2.73698276694672
H           -4.87468802639735        1.74531410449988        1.98837557531972
H           -5.32949869939043        3.44471622038417        2.13059593867401
H           -2.61041775833958        4.68394204679031        1.27237729867093
H           -3.05764937723035        4.80817108169304       -0.43751064338666
H           -4.23876914050553        5.17112661453521        0.81103021168577
H           -0.60709322266337        2.78448245712737        2.73717008467069
72
 energy: -103.315360605449 gnorm: 0.030937172860 xtb: 6.6.1 (8d0f1dd)
N           -1.49884070505048        2.78955756295865        2.24169178785307
C           -1.56824292352654        2.15028023300305        1.16652571569802
C           -2.75130373891350        2.05530330054113        0.25331272472400
C           -3.32036156637256        0.64389594888793        0.33467421497381
C           -4.30294427610025        0.23701315243311       -0.57089905881872
C           -4.84765673526623       -1.03198612171626       -0.52575719449224
O           -5.81305581938576       -1.50287396955121       -1.36036728296994
C           -6.38638797025237       -0.62558319277721       -2.29697479212399
C           -4.39939927823426       -1.95093820278763        0.45312610788428
O           -4.99118297703568       -3.17431366264178        0.41959533031414
C           -4.66441181433238       -4.10645179269418        1.42139912967275
C           -3.42801137355936       -1.54531915162432        1.34734693184392
C           -2.89514927950404       -0.26101836290613        1.28797777045030
C           -2.19919130989180        2.29729494270628       -1.17761728293142
C           -1.26325443927025        1.18502048977522       -1.67755584201211
C            0.01018406120050        1.13226030923197       -0.90432728251597
N            0.64760022688149       -0.03280539498935       -0.57535818528584
C            2.02114995040353       -0.01497838605293       -0.17469677443941
C            2.95238966657620       -0.49450443618916       -1.30401182223044
C            4.37609303677326       -0.40669660257162       -0.85673397794169
C            5.11151174105618        0.74391221028421       -1.06444949565043
C            6.42077012751601        0.83772548102742       -0.61566950318578
C            7.00953062923798       -0.21958112220053        0.05566894014091
O            8.28394795474441       -0.24222103605541        0.53191425281631
C            9.09849863697807        0.88190663481086        0.31824391100764
C            6.25577743808869       -1.39533447700491        0.28672009473803
O            6.91730527831779       -2.38049275100337        0.95151651738380
C            6.25627007316494       -3.59885953219624        1.16846596219011
C            4.94966862013870       -1.46777306303451       -0.16063316414930
C           -0.02069165246902       -1.30306789351523       -0.64724366524702
C           -3.88213871501127        3.06869451299818        0.58669855731023
C           -4.50349534272697        2.76670066576397        1.94903739602545
C           -3.40966873668848        4.51996711595395        0.55065749468601
H           -4.65233209620299        0.93226636351954       -1.31647855310350
H           -6.84017935596379        0.24380652823721       -1.81022803042046
H           -7.16194024171321       -1.20284804358675       -2.79795280464132
H           -5.65402440869717       -0.28748712102769       -3.03814315904069
H           -4.88703827135988       -3.71825589096604        2.42057595693288
H           -5.28969332888070       -4.97550367181712        1.22417209137997
H           -3.61049310965222       -4.40038117845802        1.37219301790457
H           -3.07446064498483       -2.21986918059787        2.11183661789202
H           -2.15277636912841        0.02312594019432        2.01779309544874
H           -3.03277624879143        2.38657372044438       -1.87545896215293
H           -1.65483409029364        3.24245322893117       -1.19066250201321
H           -1.79491361064771        0.23669377102594       -1.62715716504846
H           -1.03473600928089        1.38683948340922       -2.73529292147696
H           -0.69462465732688        1.63586094155962        0.67831998639614
H            0.64680781648214        2.00490115281315       -0.97205709151692
H            2.15088181086347       -0.65644313521348        0.70393126063477
H            2.29991558816169        1.00362794645931        0.10435561624413
H            2.78733455381089        0.13684897006335       -2.17897368221577
H            2.69601687692390       -1.52086855828237       -1.56259333632867
H            4.67372630394169        1.57926607481624       -1.59012615572445
H            6.97557564491597        1.74268384243334       -0.80467771231602
H            8.69291864128972        1.77395327604396        0.80605182387561
H            9.23748222156493        1.08275861237915       -0.74936622742001
H           10.05947683272294        0.63318507113873        0.76579969707651
H            6.97017066067595       -4.22730564016526        1.69685018547837
H            5.36474633389780       -3.46897652776871        1.78849895816255
H            5.97616360907835       -4.08097642014576        0.22558785048811
H            4.35973114219630       -2.35838107602597        0.02033595484906
H           -0.18059318212911       -1.61565868189681       -1.68523608974388
H           -0.99092403421828       -1.25129942999186       -0.14608401853439
H            0.59112130692059       -2.05118947741463       -0.14924784562282
H           -4.65859363511309        2.94517163945116       -0.17778071171860
H           -3.76080452333683        2.89654032101729        2.72984559494113
H           -4.87690842630568        1.74616046604766        1.98735141996047
H           -5.33292130509598        3.44596150138534        2.13396059112601
H           -2.61215521109181        4.67521053785155        1.27138148367323
H           -3.05778320385535        4.80527021170779       -0.43733316450434
H           -4.23931586497087        5.17416714721368        0.81169766753665
H           -0.61887150996536        2.78786392735475        2.74768857575293
72
 energy: -103.315966534550 gnorm: 0.019011329920 xtb: 6.6.1 (8d0f1dd)
N           -1.48259853845284        2.78319753325926        2.23101019743173
C           -1.55174129839198        2.14302605705672        1.14998389448535
C           -2.74740257516042        2.05468348975967        0.24807156098646
C           -3.31294975636557        0.64156148457557        0.32838375320601
C           -4.29932303578269        0.23514470362409       -0.57331506574909
C           -4.84413329111614       -1.03338313247229       -0.52675480434619
O           -5.81389239031103       -1.50455957464061       -1.36089445627900
C           -6.38753002704230       -0.62722498660544       -2.29624765101876
C           -4.39662721168710       -1.95121190440433        0.45056537412768
O           -4.99231673635644       -3.17658254798306        0.41952798604131
C           -4.66612822704546       -4.10681106836314        1.42096178011236
C           -3.42470512836853       -1.54741500592106        1.34480369793402
C           -2.88962185092432       -0.26474544347180        1.28315341503303
C           -2.20094612384014        2.29963143578955       -1.18352730123996
C           -1.26443099208588        1.18239918844443       -1.66953639721895
C            0.00299224857577        1.14337643489844       -0.89076827144259
N            0.64755555162907       -0.03643443656094       -0.56286220500141
C            2.01633282511423       -0.00860308549157       -0.16803031470997
C            2.94741895427328       -0.48892245825889       -1.29908909157399
C            4.36726612223337       -0.40263000679384       -0.84906171137137
C            5.10504043786743        0.74664946177220       -1.05994227181337
C            6.41480482654066        0.83873881670332       -0.61621294762959
C            7.00232395298186       -0.21962962186834        0.05295658409710
O            8.28022642416560       -0.24459267797573        0.52904356047040
C            9.09511997177522        0.87946773448939        0.31730269276817
C            6.24942780228642       -1.39294832635346        0.28619757558728
O            6.91574663741112       -2.37986070541786        0.94727787117023
C            6.25547972347469       -3.59813006669153        1.16567625601471
C            4.94237692051909       -1.46601611396126       -0.15274272759992
C           -0.02036429286795       -1.30119741218309       -0.64961294370698
C           -3.87473457909071        3.06703144721173        0.58892467358434
C           -4.49919871798548        2.76515776791731        1.95029049385716
C           -3.40700056907984        4.52119078883175        0.55155767080304
H           -4.65134360800026        0.93136954672265       -1.31672679511049
H           -6.84176156681172        0.24261480562486       -1.80973369426628
H           -7.16377170805483       -1.20497326527930       -2.79586979445673
H           -5.65712223210846       -0.28872362750736       -3.03932470322634
H           -4.88874457075707       -3.71923151865553        2.42071034004284
H           -5.29257053429078       -4.97524930483047        1.22364401877390
H           -3.61266770525435       -4.40317148128349        1.37291069427651
H           -3.07501169889552       -2.22066907737393        2.11207435068583
H           -2.15166786548972        0.02080579672555        2.01634596428559
H           -3.03349798993524        2.38608104477020       -1.88373275358599
H           -1.65513162007432        3.24493954364281       -1.19838083463374
H           -1.79608055425302        0.23131528603869       -1.61621415959155
H           -1.02315597229954        1.37760378428492       -2.72297510560606
H           -0.68608996021417        1.64014962731166        0.65508525010646
H            0.63804581826812        2.01147097439971       -0.93885284344121
H            2.14742395222305       -0.64811718361637        0.71093326110114
H            2.29417131381225        1.01214413710347        0.10934531106175
H            2.78442633774959        0.14097801281221       -2.17478683940835
H            2.68875492787461       -1.51695319147439       -1.55616268487207
H            4.66553800714254        1.58028577351014       -1.58627095339639
H            6.97115547695409        1.74182765784611       -0.80946634996051
H            8.69132660386907        1.77302513780410        0.80632233814607
H            9.23636870004628        1.08254791531194       -0.74995356592936
H           10.05532800295086        0.62912303289847        0.76572063316498
H            6.97160278255025       -4.22369973282372        1.69587674908993
H            5.36230425787253       -3.46758553535915        1.78659618171393
H            5.97591569456602       -4.08249153275697        0.22305732974265
H            4.34943135759488       -2.34896901143716        0.03161123493382
H           -0.17977796443890       -1.60817514138116       -1.69035977036272
H           -0.99171005076035       -1.25267479296665       -0.14881828136441
H            0.59342730122638       -2.04898336906339       -0.15377512744279
H           -4.65145263253796        2.94334860207740       -0.17511483637415
H           -3.76114588878317        2.89637014893769        2.73510306785479
H           -4.87263874151115        1.74452495138585        1.98793989408147
H           -5.33007581874975        3.44378731236302        2.13060127131013
H           -2.60989511629830        4.68188057164836        1.27134020969562
H           -3.05657487036315        4.80748423963945       -0.43719797539699
H           -4.23936196312849        5.17179117697335        0.81147138479087
H           -0.58675216665624        2.76432096806444        2.71559153448751
72
 energy: -103.316390395927 gnorm: 0.010590948515 xtb: 6.6.1 (8d0f1dd)
N           -1.50611032276023        2.77670728456397        2.23943478590019
C           -1.55753751991097        2.15066747744855        1.15111988298931
C           -2.75131176742982        2.05510600371811        0.24868535300073
C           -3.31677179277605        0.64212035499036        0.33137699891084
C           -4.30199314180184        0.23620572053418       -0.57153670097152
C           -4.84627110872140       -1.03220949903442       -0.52480675973679
O           -5.81419461489450       -1.50284031786570       -1.36088218499549
C           -6.38620624282040       -0.62554198867986       -2.29698709834592
C           -4.39866982972256       -1.94970965173450        0.45288173601442
O           -4.99185641584684       -3.17572824841329        0.42058262680179
C           -4.66415762312915       -4.10592742704933        1.42126460082921
C           -3.42685096551126       -1.54684652246798        1.34776838116995
C           -2.89270225118907       -0.26403762132991        1.28652730853114
C           -2.19930591116348        2.30051613274693       -1.17978851735680
C           -1.26618747192753        1.17895248255148       -1.66287029110760
C            0.00417262072221        1.13639060846927       -0.89484338602920
N            0.64904058867744       -0.03760801063205       -0.57426290877481
C            2.01816460716442       -0.00820093248135       -0.17920078246461
C            2.95321556189051       -0.49243600435949       -1.30519331044856
C            4.37183342828424       -0.40679465566204       -0.85197425760324
C            5.10970210004303        0.74291702034104       -1.06054113292594
C            6.41941298930976        0.83683123872806       -0.61611481131655
C            7.00587816103400       -0.22044185396690        0.05363390886750
O            8.28289192847502       -0.24196534412874        0.53163021843438
C            9.09814011844689        0.88151683394918        0.31883928191139
C            6.25276534472828       -1.39539999843676        0.28284212209015
O            6.91804537532387       -2.38001210452759        0.94706060927476
C            6.25753219547992       -3.59732993321421        1.16571238277973
C            4.94530771857483       -1.47213866769627       -0.15832983673374
C           -0.02223631195147       -1.29944123788727       -0.65062624120665
C           -3.87807304733104        3.06806490051739        0.58841625627423
C           -4.50237102074303        2.76612037981894        1.95006785321018
C           -3.40780328190723        4.52150071777836        0.55082668379281
H           -4.65445788896801        0.93276672731928       -1.31473799417327
H           -6.84171148647319        0.24400323582007       -1.81122567316336
H           -7.16143092281937       -1.20364083652618       -2.79768246613088
H           -5.65472162697057       -0.28727764053038       -3.03918364066035
H           -4.88746437225716       -3.72003378934591        2.42164667919359
H           -5.28950684368170       -4.97486936080158        1.22298478127756
H           -3.61034584323352       -4.40143350518964        1.37296094734916
H           -3.07693332443283       -2.22044415299497        2.11488117805714
H           -2.15641374829520        0.02202166993020        2.02180811295448
H           -3.03071996527837        2.38643838941027       -1.88015219704710
H           -1.65441143662447        3.24631690068295       -1.19279164013200
H           -1.80239843085061        0.23070424082845       -1.61843217260997
H           -1.01331806363323        1.37819074830413       -2.71145592846689
H           -0.68931342939846        1.64740344681952        0.65793211132531
H            0.64175080816018        2.00154800638077       -0.94422377617646
H            2.14427300290247       -0.65086551323567        0.69814415056136
H            2.30166325283651        1.01051221526288        0.10103840048618
H            2.79374679237740        0.13557413800976       -2.18257233449461
H            2.69711117569656       -1.51995141116824       -1.56267258872547
H            4.67229957169561        1.57603756304714       -1.58950863657433
H            6.97543506508861        1.74060701539277       -0.80735848538633
H            8.69465031777863        1.77511138582165        0.80685074844309
H            9.23933801264493        1.08250638220221       -0.74866713395872
H           10.05843140801796        0.63227777825500        0.76775856788635
H            6.97138711867575       -4.22144110438763        1.69837893784347
H            5.36682675876447       -3.46567304649825        1.78694263689143
H            5.97722955822450       -4.08324348903598        0.22456232534862
H            4.35163708564647       -2.35948068641219        0.02309447092440
H           -0.18378057906874       -1.61345833681504       -1.68821916233037
H           -0.99168915050611       -1.24660793554864       -0.14657711535267
H            0.59373339454719       -2.04245925964175       -0.15095953749947
H           -4.65431787492916        2.94328419544787       -0.17610590205693
H           -3.76521128913774        2.89643356731015        2.73573445550242
H           -4.87766851059731        1.74617229080489        1.98823692370632
H           -5.33169542001842        3.44612376729448        2.13065548715840
H           -2.61137869012119        4.68244051926106        1.27151499167096
H           -3.05776952898380        4.80771770769905       -0.43796809296319
H           -4.23989233648894        5.17209666871058        0.81051022612291
H           -0.61476986497892        2.77606442253221        2.72980040236289
72
 energy: -103.316468243130 gnorm: 0.009123383562 xtb: 6.6.1 (8d0f1dd)
N           -1.49568015042062        2.78062678967317        2.23822604575989
C           -1.55289861294945        2.15121029484091        1.15398628850021
C           -2.74812798311377        2.05468027252821        0.25145942129779
C           -3.31724872376655        0.64293313012575        0.33304823082566
C           -4.30082704242974        0.23677653578381       -0.57192800028147
C           -4.84516895937815       -1.03198140063076       -0.52560337115196
O           -5.81290125232225       -1.50264411348478       -1.36113980569021
C           -6.38672526287971       -0.62587701438997       -2.29634311087952
C           -4.39752299615622       -1.94969819696809        0.45199695807735
O           -4.99090528963831       -3.17507807052839        0.41961565924906
C           -4.66519533123147       -4.10546013844862        1.42084329507010
C           -3.42477837577827       -1.54716801529793        1.34626770910032
C           -2.89120395932179       -0.26401336686381        1.28592446060158
C           -2.19917472113584        2.29753196152973       -1.17951905755692
C           -1.26542624477398        1.18017020188585       -1.67230353914082
C            0.00600076269264        1.13338428167943       -0.90503026372937
N            0.64751979502323       -0.03543290565758       -0.57635980168717
C            2.01533021964748       -0.00770356893006       -0.17192852332862
C            2.94985893393412       -0.49025143241074       -1.29858369745198
C            4.37047933199367       -0.40431777734237       -0.85003030735111
C            5.10815993632191        0.74517795040081       -1.05926634182762
C            6.41856450425221        0.83868709284770       -0.61509820521839
C            7.00502218966685       -0.21891029414134        0.05475578739990
O            8.28191453620570       -0.24113114194800        0.53092924275824
C            9.09698498255340        0.88167759475069        0.31689691970517
C            6.25105984449086       -1.39347251157855        0.28554177246032
O            6.91474380637683       -2.37886715503922        0.95010236905242
C            6.25495163787766       -3.59722578744922        1.16570472122939
C            4.94339543847059       -1.46920069546498       -0.15634503122503
C           -0.02164129090791       -1.29939618820882       -0.64957712903874
C           -3.87682662980957        3.06756703811952        0.58800796250472
C           -4.50004647059428        2.76517920162360        1.94975171157731
C           -3.40664305432170        4.52043159905729        0.55125754460143
H           -4.65129514782344        0.93252092303631       -1.31691183040998
H           -6.84127621105210        0.24342829022259       -1.80957271308052
H           -7.16274027763783       -1.20399276206169       -2.79592543985289
H           -5.65605750054972       -0.28778511876706       -3.03932878238730
H           -4.88807022817611       -3.71831646929117        2.42082290946388
H           -5.29164995808599       -4.97394452145909        1.22351627720832
H           -3.61175252943306       -4.40230861957875        1.37285167595760
H           -3.07259782530449       -2.22172463336709        2.11134864466576
H           -2.15024083577163        0.02058268366969        2.01736712045696
H           -3.03304721471368        2.38412153336329       -1.87654236192361
H           -1.65580473242563        3.24364308440579       -1.19415806037564
H           -1.80054880990455        0.23305430272179       -1.62772073397031
H           -1.02314126722465        1.38316860607046       -2.72411206442996
H           -0.68998353715243        1.63276056866839        0.66441813830488
H            0.64460260539795        1.99908291652465       -0.96042761785990
H            2.14203239361202       -0.65195294640686        0.70548447725812
H            2.29901394122981        1.00977093228977        0.11028134356208
H            2.78550232516345        0.13885515096573       -2.17445209841040
H            2.69329889629006       -1.51688606033540       -1.55664145258098
H            4.67055181519416        1.57971132403444       -1.58660330265230
H            6.97421772818209        1.74282095057085       -0.80565809651243
H            8.69322899576280        1.77402918291909        0.80594545865999
H            9.23571994362098        1.08263106274909       -0.75079094700888
H           10.05791786487986        0.63200036234233        0.76419331645792
H            6.96825844268215       -4.22385668385389        1.69552058935847
H            5.36504947959130       -3.46876255713007        1.78729047175973
H            5.97434527570425       -4.08035288221989        0.22367257108351
H            4.34956577777210       -2.35779423944002        0.02673931796683
H           -0.17861325441102       -1.61415103818240       -1.68703077225638
H           -0.99276671756320       -1.24978773868801       -0.14896865889757
H            0.59230964357252       -2.04426072497895       -0.14911812966045
H           -4.65361207184305        2.94305372423654       -0.17633445612321
H           -3.76077851287213        2.89593597667790        2.73319377889389
H           -4.87362622349706        1.74466278755757        1.98793063587694
H           -5.32973523309145        3.44421980479270        2.13260362878488
H           -2.61002660713069        4.67859259486784        1.27225227069229
H           -3.05659890834326        4.80646425528238       -0.43733924880091
H           -4.23791552756136        5.17183706294495        0.81204011679562
H           -0.60509477373747        2.78120479578622        2.73055893770293
72
 energy: -103.316596361978 gnorm: 0.004709274568 xtb: 6.6.1 (8d0f1dd)
N           -1.49509269221010        2.78138587484269        2.23811724633461
C           -1.55497760628472        2.14872955734397        1.15541743330528
C           -2.75003054826415        2.05540494234103        0.25100026308949
C           -3.31772351641486        0.64287708979001        0.33121247262431
C           -4.30154733268120        0.23592901881578       -0.57302825823108
C           -4.84591509783319       -1.03295974053930       -0.52603307711778
O           -5.81400698597092       -1.50383672116714       -1.36147920727807
C           -6.38690431066071       -0.62678024513236       -2.29687925082540
C           -4.39859750670903       -1.95015399486765        0.45181570001587
O           -4.99174616109594       -3.17618675753506        0.41994635186978
C           -4.66512687456801       -4.10636101526739        1.42085424686961
C           -3.42688340407670       -1.54638425989520        1.34668519603424
C           -2.89299932049742       -0.26333064449353        1.28536348967868
C           -2.19987075329054        2.29910634757874       -1.17979900576053
C           -1.26363887162412        1.18185941815608       -1.66814464422566
C            0.00632750295854        1.13653953124770       -0.89744745230327
N            0.64895301044607       -0.03527179094774       -0.57084361290010
C            2.01812811910095       -0.00924411722439       -0.17260400055749
C            2.95063769815810       -0.49155235792601       -1.30211783673069