25
 energy: -42.103044211693 gnorm: 0.002161563840 xtb: 6.6.1 (8d0f1dd)
C            3.25282399746540        1.23002943386966        0.03424535010698
N            2.31603353251976        0.14189958658915       -0.05611005544946
C            2.60907727023610       -1.15148735149834       -0.13335471768502
N            1.47519082443495       -1.88009349746564       -0.18493164619820
C            0.41379341427455       -1.01054846312085       -0.13904188057084
C            0.94793495998564        0.26978314028086       -0.05853303985343
C            0.11958173383881        1.45438641280657       -0.00870886857049
O            0.51554956234052        2.59614761263008        0.04010115302901
N           -1.23945264622467        1.11872165663321       -0.02804143016961
C           -2.19734261760701        2.22019193817233        0.02340508164580
C           -1.81237868327264       -0.12092987296107       -0.10126229575486
O           -2.99311315026582       -0.31192605336321       -0.11880754016252
N           -0.91531601029425       -1.27120150692864       -0.16353002709502
C           -1.47111454577257       -2.48955781071085       -0.24225760603186
H            3.76880062117848        1.20462570710948        0.99499374027562
H            3.99215331207524        1.16027012043442       -0.76281399890028
H            2.70820496866105        2.16984811680468       -0.04989026139697
H            3.60002708179940       -1.56136669318064       -0.14807697890212
H           -1.63752609986807        3.15172973588273        0.04735296561800
H           -2.84301368299652        2.18763837626939       -0.85291780498977
H           -2.81637256622114        2.12899303358792        0.91494043608599
H           -2.66302196310834       -4.62391222702168        1.83458131542127
H           -0.86015089779915       -3.36768739458110       -0.29485552358677
H           -2.54259358305310       -2.54042884548451       -0.26335583411829
H            1.43265668177325       -2.88688661315395       -0.25195891484724
