25
 energy: -42.215489069181 xtb: 6.6.1 (8d0f1dd)
C            3.35243206536878        0.97227494781511        0.07634660988861
N            1.90103691998523        0.95669814712087       -0.01471663958870
C            2.88976481003389       -1.81666055306760        0.24119202963110
N            1.52044194731391       -1.36293011959068        0.01949376984257
C            0.24405377593395       -0.67513958646890        0.01429610111159
C            0.30182861727305        0.67753579076574        0.01011791291126
C            0.89788861357791        1.94183632235508        0.02644807363428
O            0.92259213540945        3.12924943545844        0.06829800650157
N           -1.71965019607802        0.95202837393554       -0.05069194778149
C           -2.60250834213388        2.10454407945912       -0.07471050889786
C           -2.18179412426596       -0.26140556110755       -0.06754671781515
O           -3.29534995935794       -0.72645938687321       -0.10720198416964
N           -0.99623575137503       -1.22291475207333       -0.03044574440939
C           -1.15945942355730       -2.64244488119344       -0.04370208858659
H            3.82514978365672        0.46640011936306        0.94803219837657
H            3.80580431303440        0.47987204754085       -0.79829852158303
H            3.61849156309134        2.02646766589578        0.11020110646624
H            3.32209228604131       -2.79355889407393       -0.05267614639619
H           -2.10404920777451        3.06706698828638       -0.05226557104327
H           -3.22205937622681        2.09208474189566       -0.97383660153900
H           -3.26957919443348        2.08216822579007        0.78992602028240
H           -0.72559411024907       -3.08275517429112        0.85607419932047
H           -0.67895120181740       -3.06876600748288       -0.92747380786765
H           -2.22052021513621       -2.90321897812317       -0.06897945240489
H            1.50119537716166       -2.33305294210687       -0.08612977337250
