25
 energy: -42.222598157336 gnorm: 0.006230685691 xtb: 6.6.1 (8d0f1dd)
C            3.13028038223989        1.94590239752944        0.02046472194069
N            2.65030185982841        0.59133464730679        0.11499616049261
C            3.37603868339282       -0.51126189844841        0.25629948565406
N            2.57797016416502       -1.59511573131962        0.29063055188383
C            1.28249630017554       -1.17419557038979        0.16543629414301
C            1.33331527497682        0.21152486195953        0.05446608000887
C            0.11816208249777        0.96433363296910       -0.06923299139481
O            0.02028957551902        2.16591669632984       -0.15247702482634
N           -1.02668736470463        0.11829802469794       -0.08139854898918
C           -2.28307951906952        0.85209564924466       -0.18932193989192
C           -0.96494116167568       -1.25007591288408        0.02073282332139
O           -1.97209028431573       -2.07440013243515        0.01587682258100
N            0.17456675739561       -1.90232450925539        0.14596178345466
C           -3.37358774231608       -1.87883925547590       -0.12941950743616
H            3.75158482654219        2.19160985563623        0.88148719496204
H            3.72053883281722        2.07711375388016       -0.88723618976857
H            2.27185578282501        2.61615019084768       -0.01219882389248
H            4.44645077434156       -0.53330569695656        0.33354863881986
H           -2.02370762454381        1.89674032389795       -0.36338031418333
H           -2.87365903510794        0.49825578496165       -1.02800398957173
H           -2.84239613139287        0.79496918437758        0.74228098489227
H           -3.79569527350786       -2.85913595055527        0.09722396242043
H           -3.63284679976612       -1.61991498874424       -1.15717073582646
H           -3.78272390221459       -1.15265707108392        0.56887837411658
H            2.87799505599929       -2.55477974449231        0.39272780498574
