72
 energy: 0.000000000000 xtb: 6.6.1 (8d0f1dd)
N           -1.47310921155849        2.74401293103706        2.22063921685122
C           -1.55658879776851        2.16490285539332        1.13274273951491
C           -2.74549199786261        2.05621232186130        0.23826248438941
C           -3.31377553111525        0.64333411542669        0.32332512650568
C           -4.30230156009016        0.24487110156316       -0.58026161703006
C           -4.85238763031941       -1.02286490450319       -0.53363588718165
O           -5.81419972815119       -1.48606034185536       -1.36157882725342
C           -6.39655633239252       -0.60827000183299       -2.29568474302620
C           -4.39972501531283       -1.94646102182611        0.44396929121966
O           -4.98748311285188       -3.16145997157803        0.41085992006324
C           -4.66362127904578       -4.10093827755394        1.40909127743729
C           -3.42072513477031       -1.54561384810496        1.33436546260297
C           -2.88302799614223       -0.26315800396994        1.27400150770375
C           -2.19303798107274        2.30467000305896       -1.18742977106749
C           -1.26651538239283        1.17243369445008       -1.65249429687285
C            0.01082524939134        1.09745454476277       -0.89354803499847
N            0.61779393476578       -0.02034948052406       -0.57705522512502
C            2.00145210352228       -0.02376006389122       -0.15611399603240
C            2.92554934655222       -0.53865282675074       -1.27700088804721
C            4.35756843073516       -0.43050757231754       -0.83075544324989
C            5.07346135469827        0.73206409086248       -1.03980965825901
C            6.38627986649936        0.84224441421807       -0.60344822702769
C            7.00047264773336       -0.20824756335880        0.05722314418200
O            8.26703657141718       -0.21011313101264        0.52410943644933
C            9.06912227848686        0.92943601033931        0.31863058007678
C            6.27039964270142       -1.40439753960823        0.28033466008274
O            6.94829939911432       -2.38012925705718        0.92751999079483
C            6.31537317745639       -3.61583200086742        1.15217711710877
C            4.96302794628964       -1.49347471867959       -0.16064430359178
C           -0.05511211367372       -1.29906247805359       -0.62085686319744
C           -3.86758037025447        3.07992600430699        0.58498060215443
C           -4.49286159663096        2.77383493050346        1.94313289484366
C           -3.39165179876499        4.52917666589254        0.54797523472093
H           -4.66030026466202        0.94509067363451       -1.31640568823548
H           -6.85037928558380        0.25803162192116       -1.80468845313260
H           -7.17287442604349       -1.18600110843259       -2.79318157561361
H           -5.66836817451085       -0.26952966318766       -3.04040255244073
H           -4.88416720672258       -3.71589460520039        2.40913542187496
H           -5.29223570620378       -4.96637458756866        1.20969236903657
H           -3.61139813139015       -4.39919835331056        1.35529357841967
H           -3.07077796610445       -2.21868765711333        2.10002662693138
H           -2.14562754426994        0.02067850696302        2.01001344383370
H           -3.02188875377605        2.38238012313952       -1.88813545054866
H           -1.65198530896729        3.25146700677685       -1.20556284570283
H           -1.81103374245520        0.23006524641044       -1.62116301628650
H           -0.99335688527853        1.37490212198123       -2.69443256973690
H           -0.67628064361333        1.65183887049447        0.61785727145403
H            0.63525841192517        1.98466369793744       -0.92314021190751
H            2.11132552493482       -0.65949692842762        0.72532613231274
H            2.30680473056284        0.98978251704176        0.11078972794250
H            2.76694198818247        0.06750735147374       -2.17075252200790
H            2.67954581369920       -1.57455627803457       -1.51167743520200
H            4.62169998552446        1.56295612048703       -1.56123579000624
H            6.92357674630170        1.75715815945204       -0.79119596719031
H            8.65159112996149        1.81001823324363        0.81701555159939
H            9.20136171144928        1.14042857828877       -0.74698991949293
H           10.03428838009630        0.69003240176163        0.76064937965836
H            7.05567174969094       -4.23621171795340        1.65347565939075
H            5.43848001056755       -3.50813558175093        1.79970565785717
H            6.02060041905269       -4.09420497120334        0.21253282636366
H            4.40102758497114       -2.40127266373392       -0.00490198249042
H           -0.22071299714579       -1.61775583601871       -1.65116008982042
H           -1.01972258008625       -1.24102717432227       -0.10935206830928
H            0.55899954147532       -2.04486085926761       -0.12333730421426
H           -4.63991875734388        2.95501092798550       -0.18098088071825
H           -3.76095216473977        2.90314704960906        2.73380821053058
H           -4.87457614030224        1.75695641518947        1.97884603101694
H           -5.31925552549014        3.45579210326349        2.12325564252114
H           -2.60025590131176        4.69225046143352        1.27368918226171
H           -3.03987406413880        4.81897652321898       -0.43870975059559
H           -4.22191740670577        5.18069648090034        0.80616693961239
H           -0.59832433787845        2.77744694953323        2.72958984441332
72
 energy: -4.764665814518 xtb: 6.6.1 (8d0f1dd)
N           -1.49214909883842        2.78833887567837        2.23220307903194
C           -1.56302593562574        2.15510280426842        1.15539289669077
C           -2.74788354409151        2.05073955386722        0.24976223802330
C           -3.30901016438438        0.63984944647072        0.34203190025198
C           -4.28521484244239        0.23677538252915       -0.56663524444923
C           -4.83374782913082       -1.02465999407175       -0.53421920774291
O           -5.78835300106972       -1.43655631744109       -1.41099106011393
C           -6.36720114450066       -0.53100815257139       -2.32956817146634
C           -4.39392810737195       -1.95213190006866        0.45393999278302
O           -4.97644596024618       -3.17924963096642        0.43396145104897
C           -4.64753904508002       -4.10321594955942        1.44725110257189
C           -3.42447068846888       -1.54573119308566        1.35594615447824
C           -2.88749118416055       -0.26304603164452        1.29799289210649
C           -2.20297300744051        2.28632764195036       -1.18311240007754
C           -1.27030015963344        1.16975486926571       -1.67583520189613
C            0.00291333827661        1.11151600529407       -0.90220343240026
N            0.62815885390242       -0.04771684694817       -0.57075224627038
C            2.00330041893264       -0.03971219944714       -0.16225846827329
C            2.93378346077024       -0.54290096284841       -1.28351618560538
C            4.36106628924458       -0.43459100380669       -0.84289482556878
C            5.07478607651420        0.73170608590295       -1.04298584356189
C            6.38473527326055        0.84340526620522       -0.60115989115065
C            6.99854422742745       -0.20823796037067        0.05768813250131
O            8.27278487749467       -0.21135886850173        0.52686787858246
C            9.06823824781216        0.93002100953592        0.32102164954422
C            6.27050770905800       -1.40314697434380        0.27786839423608
O            6.95229687161758       -2.38339217477880        0.92628670684073
C            6.31692221939241       -3.61741766872391        1.14623225102406
C            4.96641615902965       -1.49526330849763       -0.16780766084631
C           -0.04984202388045       -1.31617999538345       -0.62462579114242
C           -3.88324937358349        3.05997163602400        0.58253303839894
C           -4.50241017202891        2.76216896694674        1.94587546324561
C           -3.41667670862976        4.51206033743722        0.53728037351067
H           -4.63495851266989        0.92692248020366       -1.31462822376618
H           -6.84186437187402        0.31997740936018       -1.83115558761997
H           -7.13202870249373       -1.10786954354375       -2.84561496905558
H           -5.66133692925288       -0.15829837290042       -3.07938098043802
H           -4.87440154715633       -3.71253594953264        2.44468367331787
H           -5.26711749125806       -4.97840165779048        1.25809026944761
H           -3.59263993637152       -4.39670653629017        1.40718658911895
H           -3.07429529473888       -2.21548958302069        2.12720477725579
H           -2.15079005145825        0.02496644107910        2.03177440321711
H           -3.03696477369667        2.36783024548574       -1.88056517887975
H           -1.66109185520171        3.23287254289375       -1.20350218473955
H           -1.80666480033543        0.22262440691599       -1.62726368279532
H           -1.03033818305166        1.37011135138486       -2.72905919425954
H           -0.68685123657175        1.64311466020851        0.65729568310580
H            0.63732109990376        1.98576364503476       -0.96037601919105
H            2.11939676713104       -0.67002628178957        0.72357607939515
H            2.29440795076351        0.97940111657563        0.10324881490299
H            2.76526480993540        0.06709610121557       -2.17257957704619
H            2.68271825797981       -1.57740617061126       -1.51868100873939
H            4.61975844160064        1.56370606706562       -1.55959197896670
H            6.92175973543180        1.75981238093325       -0.78597166795535
H            8.64827647333999        1.80989527848114        0.81964562724695
H            9.19870978270659        1.14348413548359       -0.74493421765761
H           10.03453443582481        0.69267462515356        0.76231548556398
H            7.05651427944349       -4.23987690409045        1.64696230833916
H            5.43852878278420       -3.51104408227198        1.79211373216961
H            6.02135103323757       -4.09361421642291        0.20529350651714
H            4.40251890087778       -2.40200172772108       -0.01104475061836
H           -0.22036138275132       -1.63273104985300       -1.65824475081074
H           -1.01533162937358       -1.25444900040936       -0.11421731175734
H            0.56189705880221       -2.06371684049214       -0.12731944433899
H           -4.65837971886589        2.92816072062340       -0.18088808490921
H           -3.76264121506438        2.89913385328167        2.72822626756169
H           -4.87415993077393        1.74144467850058        1.98907665574910
H           -5.33380727414514        3.43977199383963        2.12662414768092
H           -2.62030198615943        4.67752702021695        1.25678291591886
H           -3.06753424406004        4.79378501442297       -0.45288904034956
H           -4.24937508114996        5.16266878803417        0.79497651739004
H           -0.61036450055015        2.79849304897498        2.73374676381029
72
 energy: -1.754969927476 xtb: 6.6.1 (8d0f1dd)
N           -1.52325415616845        2.85914762434408        2.23618228991076
C           -1.56674570353844        2.14961035799119        1.18130812396768
C           -2.75028106852317        2.03965656738844        0.26608359709914
C           -3.29487273706181        0.63043818366455        0.37130720644519
C           -4.25220828522372        0.21928291897076       -0.54367661062094
C           -4.80360471106922       -1.03206758917169       -0.53443046444971
O           -5.73938280762849       -1.34510385011418       -1.50526333272083
C           -6.31495145191882       -0.39105817933015       -2.39080727310964
C           -4.38745948261801       -1.96415435354846        0.47022947698317
O           -4.95621806091349       -3.21295431753991        0.47797304416402
C           -4.61792953067347       -4.10791139671900        1.51724708240733
C           -3.43278488947494       -1.54741257951497        1.39045905491276
C           -2.89297788665840       -0.26635797989738        1.33859114299808
C           -2.21850417124134        2.26104744765258       -1.17673696983165
C           -1.28107038455803        1.15642700085417       -1.69618493468470
C           -0.00948979425947        1.12412778510325       -0.91642264114652
N            0.63714197105097       -0.08436734444319       -0.56538695331602
C            2.00087896888719       -0.05776136005381       -0.17365508059294
C            2.94353232261642       -0.54841233762501       -1.29362367150820
C            4.36386081986216       -0.43925311140459       -0.85672001864802
C            5.07588574034934        0.73066662177685       -1.04620192449925
C            6.38293473372309        0.84470151823597       -0.59793439383355
C            6.99500048972041       -0.20848647969219        0.05726288125959
O            8.27959801516089       -0.21276821155409        0.53005970322698
C            9.06538690781719        0.93105890154391        0.32504506411711
C            6.27092728398106       -1.40128289813332        0.27225380692904
O            6.95774646798501       -2.38834950003065        0.92247485381076
C            6.31919236046560       -3.61990504532945        1.13515416490228
C            4.97036355752888       -1.49751748708032       -0.17916028194411
C           -0.04542100905271       -1.33913094048036       -0.63496206946978
C           -3.90558051534912        3.02537557934846        0.58074711191911
C           -4.51761708283655        2.73923996709911        1.95112480091412
C           -3.46004771663074        4.48370097613932        0.51717757052158
H           -4.59137880329395        0.89116754167653       -1.31139201998165
H           -6.82566095299784        0.43000527693630       -1.87461233219111
H           -7.05865002770249       -0.97068872141650       -2.93752776638658
H           -5.64522947562598        0.04053759423629       -3.14654056793087
H           -4.85804198711235       -3.70559864617079        2.50861662178664
H           -5.22176129819838       -4.99957768581224        1.34498750781856
H           -3.55839367662396       -4.39182906513082        1.49952770673715
H           -3.08458994055007       -2.20913457242117        2.17351432743801
H           -2.16189097348853        0.02976255876138        2.07384235482601
H           -3.06290385988987        2.34489994802736       -1.86559857114012
H           -1.67639380853112        3.20773064351447       -1.20191464271826
H           -1.80305466704251        0.20079479168209       -1.63239260028092
H           -1.08609733756600        1.35822084141661       -2.76308606549033
H           -0.70328154615756        1.62173979185119        0.72294472898189
H            0.64248342837648        1.97595709499603       -1.01099284774250
H            2.13214585833609       -0.68375420345671        0.71727684878874
H            2.27575908716459        0.96705290230209        0.09268646284521
H            2.76322252750532        0.06665105557285       -2.17681402453974
H            2.68721925340098       -1.58145184387968       -1.53230013340287
H            4.61622316513902        1.56372060827452       -1.55696806574675
H            6.91840888735486        1.76413700871869       -0.77659216858567
H            8.64279105711526        1.80987236227157        0.82476558398272
H            9.19451714379615        1.14904143722926       -0.74106794224490
H           10.03364383760200        0.69723204492017        0.76504824705101
H            7.05763785034252       -4.24570776511765        1.63470303073603
H            5.43887919364571       -3.51658408720055        1.77920477543086
H            6.02325573978321       -4.09315224014378        0.19217387133127
H            4.40408584013092       -2.40317183354908       -0.02276912094026
H           -0.22089103209857       -1.65745024527178       -1.67165422813711
H           -1.01168896786427       -1.27951170947980       -0.12508337172497
H            0.56469800459555       -2.08968099468407       -0.13794968317637
H           -4.68373499887107        2.87569328246199       -0.17844212140993
H           -3.76873137050476        2.89287489795871        2.72178484110374
H           -4.87448717124620        1.71306095691773        2.00880210380307
H           -5.35700461917847        3.40899805180391        2.13018475508335
H           -2.65689308367369        4.65618243649948        1.22676730015301
H           -3.11811681214841        4.75211141399699       -0.47945722879587
H           -4.29764791638175        5.12959114730028        0.77420458502312
H           -0.62859554842790        2.82932227290463        2.72509182165383
72
 energy: 11.253931310561 xtb: 6.6.1 (8d0f1dd)
N           -1.55648324632159        2.92230168931921        2.23853180759692
C           -1.56805062560141        2.15005227783370        1.20334031668884
C           -2.75268739422459        2.02814004611905        0.28197938111809
C           -3.27766674432407        0.61984103597032        0.40130815190109
C           -4.21554291635221        0.19909540673387       -0.51923501165091
C           -4.77286779378547       -1.04242621308910       -0.53388001370484
O           -5.68407881152626       -1.24229900174609       -1.60953129857076
C           -6.25987835214562       -0.23960384438278       -2.45729581498191
C           -4.38154473438186       -1.97790292044149        0.48697801671902
O           -4.93281786640349       -3.25024730680807        0.52782593466301
C           -4.58542295855365       -4.11377044931352        1.59372686059445
C           -3.44158213612695       -1.54936595902839        1.42544009390427
C           -2.89749138131489       -0.27089091279052        1.38135366200607
C           -2.23491548740129        2.23666222015324       -1.17070389343381
C           -1.29453283393422        1.14026102814673       -1.71214056848512
C           -0.02326651133191        1.13458397247662       -0.93412538370091
N            0.64357164798006       -0.12052373839260       -0.56157716435344
C            1.99675226243052       -0.07385062394306       -0.18516241577337
C            2.95193990685306       -0.55349584779533       -1.30418042681716
C            4.36552331169659       -0.44326399245376       -0.86859764480466
C            5.07650578221582        0.72976145285199       -1.04865543931549
C            6.38107921271098        0.84617932099423       -0.59481758569554
C            6.99098930640149       -0.20886958775922        0.05643017763337
O            8.28549239263868       -0.21389030236090        0.53290805722526
C            9.06187182086680        0.93204312912124        0.32929580494436
C            6.27126178361460       -1.39965296167530        0.26597761966515
O            6.96264310129979       -2.39346728386164        0.91791175997539
C            6.32143077406281       -3.62258661264701        1.12323636875919
C            4.97363896031564       -1.49993671321723       -0.19039386411693
C           -0.04202212304066       -1.36218593615666       -0.64676639490430
C           -3.92790724273090        2.98906446699991        0.58007149911514
C           -4.53310872530926        2.71421640032436        1.95716079000585
C           -3.50586086484674        4.45405971135406        0.49540947617805
H           -4.54600361481680        0.85017764917026       -1.30776590909171
H           -6.80880409658060        0.54771690372543       -1.92204089485691
H           -6.97975674868385       -0.82541336356640       -3.03433931281021
H           -5.62942918939176        0.25351515646303       -3.21825103279019
H           -4.84086355247655       -3.69871897916363        2.57779092102476
H           -5.17301321220643       -5.02185102787418        1.43829556807342
H           -3.52140107236904       -4.38714633038596        1.59868874552436
H           -3.09653609866585       -2.20143473187012        2.22210794443695
H           -2.17416797133174        0.03421659526551        2.12025812939527
H           -3.08982951432831        2.32101509338631       -1.84999126046675
H           -1.69258604520140        3.18309723039039       -1.20150400724896
H           -1.80124383089312        0.17608817009429       -1.63674772277847
H           -1.14069572436831        1.34430275204727       -2.79041936980066
H           -0.71953929994071        1.60183799879680        0.79071768895959
H            0.64687838338118        1.96264938586421       -1.05848900239055
H            2.14521220077855       -0.69675040334050        0.71030779057120
H            2.25753859977013        0.95557549249912        0.08232325671996
H            2.76168981820142        0.06618788567590       -2.18219332343835
H            2.69149851619240       -1.58537878091993       -1.54700792464414
H            4.61238808841798        1.56357662119680       -1.55432779403218
H            6.91452652188396        1.76871118480263       -0.76705961746749
H            8.63720279016775        1.80987464499641        0.83044085510324
H            9.19030289348961        1.15491425611715       -0.73682725397522
H           10.03220878953741        0.70188699887955        0.76794597634971
H            7.05876921809552       -4.25173725892827        1.62147054201253
H            5.43936174691340       -3.52278863765807        1.76578399853175
H            6.02549814816386       -4.09304689676237        0.17819755173969
H            4.40536383908813       -2.40484614990001       -0.03531988088028
H           -0.22121064582785       -1.68313403573683       -1.68595935453895
H           -1.00901368104570       -1.30701069504424       -0.13709761877919
H            0.56719207284646       -2.11613754889838       -0.15019675448763
H           -4.70812889408177        2.81778160507153       -0.17483534827744
H           -3.77691878554601        2.88669161882103        2.71683296182754
H           -4.87504661825930        1.68295544247162        2.03018905476486
H           -5.38066013710294        3.37548007962521        2.13304332477414
H           -2.69631713907363        4.63593354627286        1.19463184881337
H           -3.17292586780153        4.70856295407994       -0.50820524852459
H           -4.34891396240326        5.09353774144373        0.75163978718184
H           -0.64569824509889        2.86036671930275        2.70857615521227
72
 energy: 31.998611135790 xtb: 6.6.1 (8d0f1dd)
N           -1.58596356509313        2.97391329159544        2.24418326338409
C           -1.57111324893439        2.15419844744387        1.22232800336291
C           -2.75560968994680        2.01682972964028        0.29682845368250
C           -3.26106526667113        0.60887384669864        0.43103189765005
C           -4.17906308897813        0.17961503506734       -0.49688894573912
C           -4.74194435187988       -1.05157834461351       -0.53588196194805
O           -5.62904692220553       -1.14164820181024       -1.70955496024128
C           -6.20480369230856       -0.09077487914615       -2.52187512117180
C           -4.37426507996098       -1.99113722289664        0.50312519057305
O           -4.90830447297372       -3.28480048338151        0.57686775170456
C           -4.55309296696617       -4.11832765219489        1.66959939287238
C           -3.44935468328837       -1.55136433334939        1.45998722896089
C           -2.90138163636158       -0.27537968185174        1.42351564245940
C           -2.25180006704344        2.21238703533896       -1.16519949890716
C           -1.30878025785949        1.12486258086371       -1.72846766854257
C           -0.03804076052930        1.14392221828737       -0.95118295162337
N            0.64940927689514       -0.15614842313116       -0.55851101502509
C            1.99384103775364       -0.09007288675645       -0.19600839381890
C            2.95940379168387       -0.55830457349422       -1.31486250141657
C            4.36707555328916       -0.44703563775768       -0.88015062701111
C            5.07660632564618        0.72936617270747       -1.05073586560980
C            6.37867051355878        0.84792758100607       -0.59168863343421
C            6.98723471882074       -0.20915956313795        0.05573800753538
O            8.29032088949669       -0.21488952935560        0.53550502185107
C            9.05846568057814        0.93317957003520        0.33361317307635
C            6.27120850814494       -1.39875732724457        0.25993427589916
O            6.96674224187107       -2.39835209145892        0.91291437279463
C            6.32358216074731       -3.62569979489353        1.11126143764499
C            4.97639420311089       -1.50258935575459       -0.20100269369860
C           -0.03863787001300       -1.38668959503114       -0.65823321720656
C           -3.95090136403554        2.95303172596911        0.57958913540618
C           -4.54832169500829        2.68919072426314        1.96336750861191
C           -3.55185721894732        4.42399344909592        0.47346639119882
H           -4.49953078036981        0.81183784155949       -1.30428917704602
H           -6.79059120556851        0.66408257359468       -1.97090139224401
H           -6.90097281245176       -0.67896551977356       -3.13088521354376
H           -5.61272514901042        0.46342584101872       -3.28571772845751
H           -4.82365305625981       -3.69181427283425        2.64656524593336
H           -5.12423768811953       -5.04253402508583        1.53137604227186
H           -3.48498126504336       -4.38190753470577        1.69775946322377
H           -3.10911922898214       -2.19422243092078        2.27015208549725
H           -2.18706805401234        0.03804945070649        2.16745861814794
H           -3.11604511342355        2.29660688036760       -1.83561838899124
H           -1.70947748349523        3.15866144345130       -1.20200325290198
H           -1.80116303377500        0.15281291693675       -1.64046500048749
H           -1.19199172616136        1.32954674631662       -2.81644927999357
H           -0.73353276287395        1.58491843292816        0.85296803256098
H            0.64874109093673        1.95038423207419       -1.10402178877969
H            2.15695461491541       -0.70929897018935        0.70334022423989
H            2.24003896131930        0.94419116592520        0.07180635378639
H            2.76050554545036        0.06582410396700       -2.18795309238766
H            2.69563833552295       -1.58901524898295       -1.56133491316060
H            4.60853889811924        1.56391091318587       -1.55166878868144
H            6.91034572299635        1.77318265394240       -0.75802126389146
H            8.63165266832852        1.80979404204681        0.83633875193448
H            9.18615607217231        1.16069549901877       -0.73242195031442
H           10.03053714228985        0.70610149078324        0.77107580659467
H            7.06006851197261       -4.25775353272763        1.60815347833620
H            5.43988114671780       -3.52930127713131        1.75242358757041
H            6.02777683346113       -4.09326944913416        0.16418833311704
H            4.40661056688560       -2.40706728106917       -0.04766791291849
H           -0.22104582545981       -1.70800147207728       -1.70023318474128
H           -1.00652696522547       -1.33487745542393       -0.14909514266517
H            0.56989981759516       -2.14331806808897       -0.16269818990798
H           -4.73241649231725        2.75969181949147       -0.17091317343816
H           -3.78601016707102        2.88042962095865        2.71307957592704
H           -4.87521214923353        1.65305342734083        2.05144261916965
H           -5.40424518180463        3.34173273877945        2.13573193689899
H           -2.73617972684337        4.61739367945010        1.16217904114786
H           -3.22846701163849        4.66502985465223       -0.53708283760420
H           -4.40066017343743        5.05685265883341        0.72873772785212
H           -0.66120068583576        2.89384551700985        2.69453898279359
72
 energy: 58.199951365637 xtb: 6.6.1 (8d0f1dd)
N           -1.61167853458737        3.01240577512874        2.25191327729300
C           -1.57518158897699        2.16220844821795        1.23661337215533
C           -2.75911836171713        2.00575215857905        0.30992313095579
C           -3.24425452307388        0.59715994975314        0.45973420277848
C           -4.14280025265944        0.16028736967873       -0.47676639974666
C           -4.71135026648381       -1.05979827500201       -0.53787372899259
O           -5.57626019055474       -1.04005753145326       -1.80474084967510
C           -6.15219396274128        0.05447845729666       -2.58563518264368
C           -4.36448449716007       -2.00387772610694        0.51997032836459
O           -4.88201698154123       -3.31638244070561        0.62606970777057
C           -4.52118010692082       -4.12220280268096        1.74410938329357
C           -3.45454607637959       -1.55366502182085        1.49395508952104
C           -2.90387041581257       -0.27963730175132        1.46449989118138
C           -2.26896120645714        2.18954000773408       -1.16074241057250
C           -1.32432507437602        1.10995068611601       -1.74343782552796
C           -0.05457075055064        1.15306772242971       -0.96709145572226
N            0.65448960408402       -0.19105481122412       -0.55624413221603
C            1.99191727896336       -0.10551188277489       -0.20600706921574
C            2.96565722811980       -0.56281860811394       -1.32539007991530
C            4.36821106310515       -0.45032744082103       -0.89057087167212