72
 energy: 105.620152802672 xtb: 6.6.1 (8d0f1dd)
N           -1.93220683727661        1.67482751076064        3.10781683977563
C           -1.22490464993787        1.45444323903716        2.11929038501323
C           -2.54926234053044        1.78816162332443        0.28116984003536
C           -3.38931869651568        0.56676051353474        0.42988657858330
C           -4.14279022210164        0.00844177323178       -0.60564224393799
C           -4.75867674120071       -1.22184550143774       -0.44920247982520
O           -5.53925148835546       -1.79973362033982       -1.40891859733025
C           -5.82746135667771       -1.07948686610941       -2.58073227539201
C           -4.59076883079940       -1.98709730589889        0.71861435919246
O           -5.07969748171794       -3.25973822865861        0.74464942393190
C           -4.70192563349044       -3.98921791408346        1.88010549145977
C           -3.93578752523417       -1.41383089759316        1.78642983183100
C           -3.41332244773748       -0.14631001592248        1.65697386354376
C           -2.18319201560511        2.12056401663714       -1.19486791957962
C           -1.45171086389010        1.19754967012106       -2.15610035814813
C            0.03174024272208        1.05407101765671       -2.05407608784652
N            0.62372951790386       -0.08592317183028       -1.56081592003221
C            1.98033313937088        0.07942844555745       -1.11242662945686
C            3.07746956493657       -0.42728575031722       -2.05317297037703
C            4.36414630869808       -0.27341720518728       -1.29486585752643
C            5.07061109773589        0.91496017820572       -1.29650661534504
C            6.25131285123253        1.02588865010181       -0.56566273812118
C            6.77292175613430       -0.02708375569656        0.18481150570823
O            8.00893933957073       -0.00564284045345        0.83893303075907
C            8.83162624351738        1.13949956439656        0.69240337743328
C            6.00383726809265       -1.22476711824872        0.24740774279616
O            6.56229930941211       -2.23393612704908        1.00576789809328
C            5.86549741606754       -3.44088927944234        1.19601541661949
C            4.82412937322578       -1.31551127347671       -0.48931502947440
C           -0.19436129625202       -1.10526310642254       -0.94308079050588
C           -3.17007987810802        3.14826398679382        0.72910670564850
C           -4.25180470901437        3.19118272471153        1.78590020336446
C           -2.01694575027604        4.10807883217863        1.01263472783112
H           -4.29242413505423        0.55718784781524       -1.51666197026464
H           -6.37143344553292       -0.14403451654765       -2.39948349522412
H           -6.47178692040212       -1.73721398934305       -3.15892906087623
H           -4.92669860909358       -0.84408418616868       -3.15660719273968
H           -5.09550204639099       -3.52617473407488        2.80678306920797
H           -5.13378996165519       -4.97592427195740        1.75971694258209
H           -3.60567176847410       -4.08026486154381        1.90339318515283
H           -3.78333059404377       -1.94871050119866        2.71494158766791
H           -2.97982571532542        0.21988096966807        2.56706101855292
H           -3.13421641544030        2.37758439996688       -1.69062694653801
H           -1.55437218905948        3.00713679579948       -1.23142384526953
H           -1.93100944994229        0.24203632284488       -2.12348930931251
H           -1.67318860769059        1.76194337255815       -3.06232782607543
H           -0.23489505881699        1.09296709322116        2.15820250177295
H            0.63988829785147        1.52689551104901       -2.82158231967983
H            2.07603012971380       -0.44532521987247       -0.16793092429495
H            2.19943690568045        1.12286601167019       -0.90947200635153
H            3.10215461877449        0.13474117745760       -2.98674800855117
H            2.84479068327903       -1.46262572230510       -2.26857009769610
H            4.73173224212698        1.75247877174931       -1.89216739664493
H            6.81478119539155        1.94501055165582       -0.61452944103525
H            8.35749947007307        2.02262828157718        1.13057041531584
H            9.05373530101040        1.34544754437239       -0.36154750961236
H            9.78068655980941        0.94597155304387        1.20622366659145
H            6.49179262349192       -4.12644951315693        1.80832315172488
H            4.92763642262139       -3.20239272682247        1.69423187589175
H            5.62807893138756       -3.93691088335898        0.25049203128096
H            4.23969292670948       -2.22543959299853       -0.48073991451172
H           -0.54287324807053       -1.80374631509483       -1.70864824802891
H           -1.08317133456496       -0.66894434780381       -0.48463643715626
H            0.35168954368406       -1.69397364689558       -0.17031550735783
H           -3.65705764797167        3.51659342975479       -0.17771691798440
H           -3.85328925953271        2.77590126869904        2.70511650210302
H           -5.13091714646022        2.56150013626963        1.49082326482825
H           -4.58090784301028        4.23883524869390        1.89739313307487
H           -1.30808059936699        3.62297560177523        1.66379840482643
H           -1.48830485746985        4.30828268783575        0.08349958593420
H           -2.36148528883883        5.03736810758578        1.46136967591947
H           -1.75993629746208        1.66420914324624        4.08803361189873
