25
 energy: 59.390504254615 xtb: 6.6.1 (8d0f1dd)
C            3.79195977924074        0.88403383954797        0.09967371873469
N            2.82016940901333       -0.15869212564853        0.01436567448792
C            3.07485057438389       -1.48532750311395       -0.05801530963882
N            1.89546031515768       -2.16729604956274       -0.06962197180542
C            0.80980439121702       -1.29777237831368        0.03748335042473
C            1.42950359580343        0.03189803149757        0.12092242520134
C            0.79725841690780        1.18289263156994        0.22268275193247
O            0.13478668488792        2.15772898296213        0.33167013856375
N           -3.24066325691315        1.54393710111459       -0.33911334179884
C           -3.32292706142812        2.94292367132054       -0.19484321382219
C           -3.46809759193712        0.43748495282347        0.00936953380911
O           -3.61684486096609       -0.70149721187905        0.17925828380260
N           -0.43819640839593       -1.50892659746471        0.05202532600420
C           -1.05047437515986       -2.80156661692709       -0.02774160798412
H            3.86611335298304        1.28286334201488        1.11651892662667
H            4.76593064884360        0.49773623343914       -0.19918803116054
H            3.50727808341005        1.69902548997216       -0.57018863533730
H            4.04790092227289       -1.91586718208406       -0.10741391975516
H           -2.31333774095480        3.34449255882837       -0.09505491667610
H           -3.78264929781858        3.35744784813999       -1.09501419916926
H           -3.91718869337538        3.22941434132640        0.67609617800728
H           -0.61217674700585       -3.53456628479435        0.66177385313817
H           -0.99879136954871       -3.20584333020213       -1.04455059548083
H           -2.09983857440672       -2.65702771758683        0.22770596001009
H            1.83238410876016       -3.16846723824047       -0.12176646592375
