25
 energy: 1.640870465179 xtb: 6.6.1 (8d0f1dd)
C            3.35375279836369        1.12697056426556        0.10551196796808
N            2.32875429866262        0.12561990740233        0.00751502165534
C            2.59844096976907       -1.25271689883069        0.00534728178260
N            1.38503249623056       -1.90865828568808       -0.04635440111754
C            0.38199851698999       -1.00508982929931       -0.01841659976870
C            0.90139108657572        0.28159247308248        0.02732041367892
C           -0.00843891089570        1.38094189718545        0.05377380723689
O            0.31708918277658        2.56997843933365        0.09721192435750
N           -1.46144239557667        1.05923533124036       -0.03448457249970
C           -2.37612988949917        2.20997579594259       -0.08546798516088
C           -1.97866579707210       -0.19987549917406        0.00000072228797
O           -3.14371266181549       -0.49779531167176        0.00057999683624
N           -0.97017609517090       -1.24264453298653        0.01145667839028
C           -1.40008363309289       -2.63040402706347       -0.04531735658049
H            3.76058100142404        1.24083409312120        1.13728704683919
H            4.20484543357590        0.85944105846217       -0.54326509948175
H            2.96679942609356        2.07857010429394       -0.23825872082239
H            3.56490861669497       -1.71983796355933       -0.01329247837245
H           -1.77672497524470        3.11869580405440       -0.05295555500236
H           -2.96631632102747        2.23824336493797       -1.00021481509451
H           -3.05255172822480        2.21267479039422        0.76679373363732
H           -0.99994438678419       -3.20704044482256        0.79480982061506
H           -1.09568976387672       -3.11515626916160       -0.98097506768942
H           -2.48540672770059       -2.62429144793639        0.02214388328047
H            1.30195252490917       -2.91394887216728       -0.08072109049470
