25
 energy: -43.447859363725 gnorm: 0.123554113165 xtb: 6.6.1 (8d0f1dd)
C            3.25842454978609        1.20203264357234        0.09132250027264
N            2.31649593205859        0.10500762017094        0.03616573252266
C            2.61922830520130       -1.24173355181401        0.03047110527160
N            1.44459140442881       -1.92322394284973        0.01285593757852
C            0.43427744443468       -1.05655908777591       -0.01411481185933
C            0.94855472843452        0.24157008268606       -0.00033795340416
C            0.11449622055390        1.37700445751090       -0.01095613751694
O            0.47685370235364        2.56389998386600       -0.01314700974922
N           -1.26779963106276        1.02563215043570       -0.03334159525261
C           -2.21546408326298        2.12342153646638       -0.04966055989526
C           -1.81770207043867       -0.23750291113145       -0.05193460813680
O           -3.02277624423481       -0.42700238667180       -0.07179203107579
N           -0.91565007627664       -1.34639646966529       -0.04473432834370
C           -1.60980569384658       -2.61540508589508       -0.06018009934386
H            3.75624303986514        1.25555171272650        1.06655941469008
H            4.02851207876142        1.13234360066093       -0.68774010661581
H            2.69614526874055        2.14767683653026       -0.03154110593693
H            3.59824521011805       -1.68642022406342        0.04605548603158
H           -1.64201590345706        3.05794334656269       -0.02521565296044
H           -2.80365406408933        2.05940914710636       -0.95136727242843
H           -2.84433487576211        2.04589299438760        0.82589160225000
H           -1.33559115152329       -3.21877428700614        0.83343468968309
H           -1.31032648731428       -3.20571003720068       -0.95595024888556
H           -2.61174137489046       -2.46177276854923       -0.07571613099615
H            1.32080266754962       -2.92796618922272        0.00040352564996
25
 energy: -43.455284678984 gnorm: 0.034846002901 xtb: 6.6.1 (8d0f1dd)
C            3.25222751019798        1.19904279318025        0.09511025646276
N            2.32092272667107        0.10643298253960        0.03448563851535
C            2.62073021846902       -1.24413358197874        0.03236832865488
N            1.43573274204733       -1.93061163622454        0.01001779618759
C            0.41673253278244       -1.05907954561564       -0.01389711449724
C            0.93899403018457        0.23457657066463       -0.00017062915123
C            0.11571833962390        1.37683337117306       -0.01297475358440
O            0.47579504773070        2.56230131978805       -0.01276548063131
N           -1.26637806996515        1.02769411634878       -0.03393736637899
C           -2.21710038347711        2.12453310106953       -0.04843559281458
C           -1.81503376181057       -0.22062259742507       -0.05094433747957
O           -3.01585375599701       -0.40264410152930       -0.07162974563434
N           -0.92732885930598       -1.32904890548093       -0.04396268598820
C           -1.56684073485814       -2.62727299434480       -0.06035082734510
H            3.75412072190668        1.23984780130940        1.06764201590223
H            4.01151321212170        1.11945030500363       -0.68744849545302
H            2.68702095030212        2.12805942443712       -0.03667450420888
H            3.59358532085345       -1.68116731515975        0.04929561641149
H           -1.63941728523379        3.04964791827503       -0.02648070921745
H           -2.81782442260120        2.07064691998504       -0.95149432482875
H           -2.85898590237907        2.05693300722855        0.82600143797516
H           -1.30496866510358       -3.21530048960581        0.83258043445318
H           -1.28001243526233       -3.20346358872133       -0.95404974532017
H           -2.62156084404688       -2.46173123785188       -0.07535489393599
H            1.32422066327724       -2.93200446622770       -0.00149997654427
25
 energy: -43.455826985513 gnorm: 0.012240893219 xtb: 6.6.1 (8d0f1dd)
C            3.25547978154321        1.20947525579700        0.09446491145308
N            2.33025027792892        0.11293975511234        0.02989489926675
C            2.62810827615287       -1.24149439578555        0.03150687162395
N            1.43855599010062       -1.93404325818779        0.01090983389752
C            0.41266516304782       -1.06485884447513       -0.01290928608038
C            0.93813805067992        0.22802158040448        0.00052891572532
C            0.11901961227501        1.37247853949496       -0.01254364046893
O            0.47203167106275        2.55831239378309       -0.01279054467003
N           -1.26355668397491        1.01775726396840       -0.03419369039273
C           -2.21010599387267        2.11631835002269       -0.04806680661092
C           -1.81175984244695       -0.22445778040419       -0.05134987195185
O           -3.01137575342403       -0.41486027124530       -0.07223559208419
N           -0.93101172544542       -1.32674402775869       -0.04302497850674
C           -1.56622287104874       -2.62834411080621       -0.06041899670465
H            3.75763157082346        1.25234799767621        1.06605265990699
H            4.02110540330804        1.13426010348254       -0.68274573885636
H            2.69739124921504        2.13746443175965       -0.03442797894033
H            3.59811321952373       -1.67670409698292        0.04450012040092
H           -1.63933815381208        3.04370019604400       -0.02585404112254
H           -2.81285502852581        2.05860941085762       -0.95284262055775
H           -2.85477968992676        2.04358247174575        0.82607103818647
H           -1.33918810687507       -3.21323684707853        0.83403258671396
H           -1.31292851351832       -3.20027472591056       -0.95615551460261
H           -2.63846466336938       -2.43731540735420       -0.07564382370483
H            1.33910565670610       -2.93401481332245        0.00267162962906
25
 energy: -43.456147969055 gnorm: 0.005395714258 xtb: 6.6.1 (8d0f1dd)
C            3.25394978238335        1.20463699716867        0.09401925149440
N            2.32725041441045        0.11133393605575        0.03011865258016
C            2.62250391582250       -1.24393527240586        0.03358988828858
N            1.43201906389705       -1.93298973557523        0.01027033345112
C            0.40942853680459       -1.06179297460640       -0.01338157836145
C            0.93526607012515        0.22981968695105        0.00123006144550
C            0.11818884535215        1.37622565427345       -0.01267350427142
O            0.47151109472242        2.56128056476165       -0.01269326397494
N           -1.26684436747611        1.02174888449427       -0.03425676609191
C           -2.21087397203312        2.12347842877843       -0.04798636596725
C           -1.81535245299220       -0.22204205160097       -0.05134091113403
O           -3.01610764208376       -0.41474646708547       -0.07178557252714
N           -0.93334674326424       -1.32383906669625       -0.04365993200694
C           -1.55644934325079       -2.63194993065908       -0.06051937706282
H            3.75614512793907        1.24627721873763        1.06626156468061
H            4.01888529281420        1.12545886436229       -0.68503357718303
H            2.69534590976801        2.13366155802386       -0.03462237572066
H            3.59152299223271       -1.68350017677222        0.04694706097360
H           -1.64044345482627        3.05158163677740       -0.02630078112461
H           -2.81415774503363        2.06685973325531       -0.95194399549515
H           -2.85494733538685        2.05265186385792        0.82616882943869
H           -1.31798329796461       -3.21219602967289        0.83278340959050
H           -1.29242943942849       -3.19953817341317       -0.95474942869020
H           -2.62839618787009       -2.45671976791647       -0.07554646509891
H            1.33132383146586       -2.93284621025647        0.00053518431644
25
 energy: -43.456171245306 gnorm: 0.002738504615 xtb: 6.6.1 (8d0f1dd)
C            3.25238338394648        1.20389418614975        0.09501016558865
N            2.32754403038460        0.11036443975657        0.03056802716833
C            2.62412570247735       -1.24397327324556        0.03383943450967
N            1.43432452737431       -1.93327237744051        0.00987770332565
C            0.41194796830292       -1.06251275865993       -0.01355645830280
C            0.93652236515297        0.22924760573916        0.00139626107017
C            0.12065586829749        1.37643299355198       -0.01296171780721
O            0.47432919372286        2.56084079762457       -0.01270970089765
N           -1.26555008982625        1.02252465079301       -0.03432280040961
C           -2.21259600961390        2.12179651019598       -0.04821584684972
C           -1.81361700119725       -0.22119919727373       -0.05122564007826
O           -3.01481547550474       -0.41178335595758       -0.07180661545014
N           -0.93184061289724       -1.32396561347012       -0.04369284021669
C           -1.55966955129102       -2.62941356535907       -0.06026043441394
H            3.75509509378368        1.24551132827760        1.06744979424582
H            4.01552652905669        1.12585578528136       -0.68590035631327
H            2.68975000429898        2.13126848732068       -0.03491178561402
H            3.59448189321484       -1.68222587201873        0.04630969052525
H           -1.64087526422599        3.04886699158143       -0.02635124071993
H           -2.81572606644928        2.06533752213347       -0.95204535952138
H           -2.85703637903678        2.05112341668735        0.82564641630651
H           -1.31978947413418       -3.21100256154208        0.83299442420515
H           -1.29431786945751       -3.19890186962016       -0.95419152243900
H           -2.62943868733109       -2.45228186689812       -0.07528107750588
H            1.33459481707941       -2.93361323277011       -0.00022817885653
25
 energy: -43.456180288123 gnorm: 0.001533239904 xtb: 6.6.1 (8d0f1dd)
C            3.25341961955723        1.20411210847507        0.09465633854415
N            2.32741857774472        0.11118538595670        0.02993836988611
C            2.62348098395783       -1.24330555391517        0.03415771495262
N            1.43365056702382       -1.93279160909762        0.01035625413304
C            0.41137620705958       -1.06237160988042       -0.01345763744939
C            0.93585660962627        0.22952403370120        0.00129642633168
C            0.12016019701071        1.37656498281180       -0.01304028196058
O            0.47223767387263        2.56117301259631       -0.01279820395347
N           -1.26632296659468        1.02184473599395       -0.03425845689378
C           -2.21240486793364        2.12174050204929       -0.04798672947065
C           -1.81410934420775       -0.22182200775805       -0.05122996747693
O           -3.01526950981154       -0.41250965189609       -0.07186686333602
N           -0.93244592071123       -1.32436507988515       -0.04364691557478
C           -1.56002824270395       -2.63030234114770       -0.06054794026836
H            3.75630248716841        1.24584746126381        1.06692869222599
H            4.01773516466273        1.12572130076470       -0.68511390215192
H            2.69386702242144        2.13313761104736       -0.03550632598298
H            3.59376926474147       -1.68145745340842        0.04622196606826
H           -1.63972075817741        3.04827051176675       -0.02611790493579
H           -2.81542935152961        2.06576414077467       -0.95191512019575
H           -2.85655829190147        2.05140689131561        0.82610410901020
H           -1.32055111267429       -3.21249255785467        0.83254006397482
H           -1.29490449520787       -3.19983566862399       -0.95465005825696
H           -2.62999373652353       -2.45293244468720       -0.07564848639710
H            1.33447311925746       -2.93318752952557        0.00101520072675
25
 energy: -43.456180397712 gnorm: 0.000985025631 xtb: 6.6.1 (8d0f1dd)
C            3.25281137978636        1.20429185629768        0.09482304379420
N            2.32762301244101        0.11084561734197        0.02949603903761
C            2.62314725613275       -1.24401744715697        0.03413744822685
N            1.43296472771314       -1.93322626515732        0.00956952636089
C            0.41106086270486       -1.06265688276157       -0.01363900981695
C            0.93557869820082        0.22906784729170        0.00147942428175
C            0.12101388349919        1.37655047639333       -0.01274535897491
O            0.47256037775653        2.56103770359468       -0.01248136664362
N           -1.26626295716621        1.02169884730978       -0.03426776276929
C           -2.21154613318660        2.12224192894513       -0.04834724005357
C           -1.81392221579919       -0.22193430584926       -0.05125712731221
O           -3.01505508191292       -0.41309253936438       -0.07181636305456
N           -0.93263141201213       -1.32424441412612       -0.04353940229928
C           -1.55935787625739       -2.63061749241817       -0.06007347625980
H            3.75558431657195        1.24663557083484        1.06702675313686
H            4.01738648520323        1.12750187400983       -0.68502053645095
H            2.69259053543604        2.13294428213768       -0.03407123942762
H            3.59312392773022       -1.68265090382229        0.04551781421102
H           -1.64041626849775        3.04987053177538       -0.02655123446135
H           -2.81431076053931        2.06555131272003       -0.95238290668583
H           -2.85566801128036        2.05143292969463        0.82565749300771
H           -1.32008651282006       -3.21184387439885        0.83348167901254
H           -1.29463056646377       -3.19972872878456       -0.95431170431052
H           -2.62958620810609       -2.45318059218272       -0.07508483047655
H            1.33403743699302       -2.93355816148724       -0.00016932052327
25
 energy: -43.413784234006 gnorm: 0.272040924834 xtb: 6.6.1 (8d0f1dd)
C            3.27805753892613        1.23844257122857        0.09898859375855
N            2.34417494340252        0.12647587170282        0.02852451196741
C            2.66054931279006       -1.26690872673800        0.03159044020842
N            1.49274261545298       -1.93468056849178        0.01462237420989
C            0.47478649778805       -1.07302344767068       -0.01874521539555
C            0.98377544572147        0.24091005720086       -0.01487471621641
C            0.12995474251230        1.34811495319449       -0.02444807854145
O            0.42398142760048        2.56232979613906       -0.02966956753389
N           -1.28123599693844        0.98636998874922       -0.03866496291000
C           -2.20369268350987        2.09338969160867       -0.04955088094246
C           -1.80805503194631       -0.27658507012414       -0.05749713758042
O           -3.01887220419909       -0.48952034011439       -0.07377562474064
N           -0.90013909045453       -1.40077796940006       -0.04962749438400
C           -1.74960565324492       -2.58222814436017       -0.06083849750723
H            3.80272539783111        1.29371957271949        1.06118362109655
H            4.03881659326408        1.23219806591344       -0.70249088448550
H            2.68833070772347        2.18977694862141        0.03497726225815
H            3.62101663276327       -1.74521662263391        0.05392851218020
H           -1.61092452370728        3.02431688138775       -0.02507339940586
H           -2.79935560661043        2.01681388289014       -0.95035286382073
H           -2.82785617205945        2.00396778400677        0.83106293880007
H           -1.50131858554163       -3.23290862514038        0.83816769837533
H           -1.47634639940945       -3.22550072745524       -0.95896075636229
H           -2.66514534053680       -2.36503057385279       -0.07716551106940
H            1.32996147755412       -2.92189646548571        0.02625620286277
25
 energy: -43.444055670440 gnorm: 0.062674803683 xtb: 6.6.1 (8d0f1dd)
C            3.26589228483068        1.23108687712519        0.10276822578669
N            2.34753664045533        0.11827507736171        0.02760537325648
C            2.65524052122903       -1.25421265465084        0.03393099484469
N            1.47459430016304       -1.93509663972452        0.01296950068123
C            0.44399697703947       -1.07646159087843       -0.01827891305689
C            0.96577119551154        0.22759616552163       -0.01322367585532
C            0.12973231748416        1.35161961217753       -0.02527299399612
O            0.44169345838321        2.55226630920614       -0.02813391601712
N           -1.26772383495480        0.99221370413654       -0.03936940849403
C           -2.20642053085196        2.09193678939494       -0.04846332474207
C           -1.80211139788435       -0.25193136979316       -0.05602525885729
O           -3.00618704170403       -0.44101326518236       -0.07399633302960
N           -0.91293780130640       -1.37265850858742       -0.04884065950594
C           -1.67303827234113       -2.61623502361965       -0.06081531762421
H            3.79567940125555        1.26927853195720        1.06127872385330
H            4.01435958636962        1.21451924628363       -0.69892691040597
H            2.68069696043870        2.16192668098294        0.02367469301460
H            3.61658381017826       -1.71831755737222        0.05586134718954
H           -1.61918380426716        3.01396550421719       -0.02742631104425
H           -2.81124049831028        2.03119462034893       -0.94942687139903
H           -2.84155611079536        2.01719131689620        0.83073925420545
H           -1.46501715525491       -3.23513749929624        0.83674249975821
H           -1.44048415995957       -3.22942935728687       -0.95679657182663
H           -2.69436857520935       -2.36981468631805       -0.07692632692008
H            1.33481777467258       -2.93021349900457        0.02391874500586
25
 energy: -43.446368215351 gnorm: 0.012894876768 xtb: 6.6.1 (8d0f1dd)
C            3.26452131737624        1.23618347181124        0.10189178854945
N            2.35499215507041        0.11582786341348        0.02395397073186
C            2.65681423542727       -1.24851102685728        0.03396802095265
N            1.47097340050931       -1.93857810016616        0.01322577991570
C            0.43343775691675       -1.08357186949386       -0.01817002530695
C            0.95904180988017        0.21797002811646       -0.01253309750948
C            0.12629008634200        1.35028855603022       -0.02608018608540
O            0.43909045852084        2.54694676644169       -0.02923161814999
N           -1.26262131236272        0.98347899592055       -0.04065300182924
C           -2.20203701134860        2.08451251511897       -0.04827488810098
C           -1.80264067211180       -0.25538826152667       -0.05648118606694
O           -3.00462930295124       -0.44882136143724       -0.07366621867387
N           -0.91762809814568       -1.36291675528291       -0.04813533145584
C           -1.65229004093551       -2.61900283313156       -0.06048125875211
H            3.79638948520385        1.27410694615673        1.05898255856409
H            4.01716201105707        1.22167381173181       -0.69553976738329
H            2.68520157547657        2.16235914215781        0.02791982711763
H            3.61631609565766       -1.71441274420548        0.05350902864319
H           -1.61886303840510        3.00684838852352       -0.02725359766687
H           -2.80907464841999        2.02350036123329       -0.94950279764494
H           -2.83925317225511        2.00816801290104        0.83044158257621
H           -1.48461376153058       -3.22062243987819        0.83711023576709
H           -1.45833531665220       -3.21400441261500       -0.95698534818825
H           -2.69337944105625       -2.34634324734383       -0.07643502819590
H            1.35146147390848       -2.93714302372319        0.02598712301372
25
 energy: -43.446466361462 gnorm: 0.008110236674 xtb: 6.6.1 (8d0f1dd)
C            3.26348698193328        1.23296931418507        0.10181148151683
N            2.35465819310710        0.11443382704924        0.02423218429136
C            2.65202725195120       -1.24921021971284        0.03655163047365
N            1.46291277487717       -1.93773452634827        0.01263147668886
C            0.42773921715218       -1.08071423417973       -0.01851374331125
C            0.95494133495760        0.21934453298025       -0.01119653522966
C            0.12471793307029        1.35614711175210       -0.02530548223123
O            0.44041331412947        2.55119969064917       -0.02689510028263
N           -1.26383226860116        0.98832301117563       -0.04012892067058
C           -2.20286901679027        2.09298913075050       -0.04796741718460
C           -1.80576528058493       -0.25241399073243       -0.05595687548483
O           -3.00824217200101       -0.44811414993615       -0.07389847598112
N           -0.92252168375383       -1.35793519817122       -0.04853143748862
C           -1.63927034753764       -2.62724353515687       -0.06108345160070
H            3.79529894617621        1.26897473844019        1.06009181686468
H            4.01532757395341        1.21126564291496       -0.69757215885083
H            2.68271785295702        2.15779213348356        0.02292490860163
H            3.60885521249881       -1.72218603359105        0.05572356360636
H           -1.62040430932155        3.01611649383600       -0.02751888258937
H           -2.81131324794175        2.03373749191081       -0.94870556032201
H           -2.84149563125651        2.01948494333867        0.83016081228583
H           -1.46362923054242       -3.22643834546917        0.83215018674901
H           -1.43829971524165       -3.22038717724764       -0.95282955700363
H           -2.68724477489617       -2.36206711589243       -0.07670237028071
H            1.34811713687700       -2.93578475213292        0.02409447225506
25
 energy: -43.446592015859 gnorm: 0.002839048832 xtb: 6.6.1 (8d0f1dd)
C            3.26339114691980        1.23472878667613        0.10297785052679
N            2.35618869940808        0.11505067308869        0.02377670534055
C            2.65522493082132       -1.24860657628350        0.03538895189249
N            1.46650348577460       -1.93826054484623        0.01248553260566
C            0.43101615861347       -1.08205492640492       -0.01863977375965
C            0.95711303484989        0.21847135831566       -0.01179693547643
C            0.12712955405618        1.35470657937122       -0.02627177529806
O            0.44295543028641        2.54958901800234       -0.02854718727543
N           -1.26157635092293        0.98725714184090       -0.04054786516025
C           -2.20322544923669        2.08932573819521       -0.04827871664704
C           -1.80358385811583       -0.25311724383084       -0.05612588113607
O           -3.00671190429642       -0.44556436826409       -0.07377140221805
N           -0.92157756084990       -1.36003697563804       -0.04824875438006
C           -1.64674962103138       -2.62422778483157       -0.06048663255533
H            3.79550214623620        1.27028623189010        1.06115019730230
H            4.01457385554593        1.21709526973406       -0.69701744903951
H            2.68077535722953        2.15924852918184        0.02563067980232
H            3.61315330794887       -1.71991055003492        0.05354442459043
H           -1.62078253614374        3.01224105943915       -0.02766923644288
H           -2.81105771088392        2.02825855017305       -0.94918476678112
H           -2.84111472759653        2.01365604379073        0.83014439890412
H           -1.47278696364979       -3.22484981992911        0.83513846099615
H           -1.44729570520301       -3.21913215342449       -0.95443774430459
H           -2.69379810067060       -2.35536968749882       -0.07629675660429
H            1.35305942608233       -2.93623556481711        0.02465023993944
25
 energy: -43.446594817799 gnorm: 0.001652728359 xtb: 6.6.1 (8d0f1dd)
C            3.26423084224184        1.23443112614862        0.10183005288430
N            2.35578569486336        0.11562422135963        0.02351375993154
C            2.65460201328311       -1.24819129307235        0.03657739487883
N            1.46577993437368       -1.93805418264549        0.01331454364663
C            0.43125921802897       -1.08160606638986       -0.01826141364382
C            0.95648894368439        0.21885104421468       -0.01142548735711
C            0.12585724073687        1.35448570399764       -0.02568227102769
O            0.44029726222112        2.54948643536657       -0.02772449955135
N           -1.26239256607035        0.98646627214619       -0.04014734798790
C           -2.20352862988491        2.08888210669791       -0.04789488392389
C           -1.80378141215664       -0.25431879292469       -0.05619121655700
O           -3.00688721419646       -0.44671430685984       -0.07402189630039
N           -0.92146175752827       -1.36028344417502       -0.04822791998993
C           -1.64701504829373       -2.62387400446137       -0.06115248219318
H            3.79648606317963        1.27102117754718        1.05960271857224
H            4.01640466418749        1.21552569652158       -0.69724880497394
H            2.68439768714221        2.16058677031374        0.02394659809763
H            3.61248331208272       -1.71937343673305        0.05484493829885
H           -1.61974918349497        3.01090866392012       -0.02698389227609
H           -2.81075513125828        2.02843361564113       -0.94911144782078
H           -2.84119026632459        2.01345925521479        0.83058492474663
H           -1.47298524097244       -3.22463496808066        0.83491187281708
H           -1.44695594860494       -3.21786789888926       -0.95615379382748
H           -2.69410580387143       -2.35466364676588       -0.07717042809364
H            1.35306137180346       -2.93603126419685        0.02583754647197
25
 energy: -43.446597250645 gnorm: 0.000824792671 xtb: 6.6.1 (8d0f1dd)
C            3.26325034960756        1.23431487962170        0.10312890524053
N            2.35579248808034        0.11515752059138        0.02316569023650
C            2.65452313643901       -1.24873688131919        0.03546637833640
N            1.46528063727466       -1.93856194632210        0.01192652686545
C            0.43153029459996       -1.08163987201950       -0.01893124015961
C            0.95638491730086        0.21852193415799       -0.01188825331756
C            0.12623589041997        1.35457518959151       -0.02635974899833
O            0.44125951159956        2.54932837604375       -0.02858248479367
N           -1.26199367988166        0.98686718958573       -0.04057139846396
C           -2.20311406056764        2.08955701549630       -0.04850017752956
C           -1.80331733902704       -0.25434469689079       -0.05613595046751
O           -3.00654629673218       -0.44634545143851       -0.07353922691571
N           -0.92137819192559       -1.36005352239398       -0.04814099411586
C           -1.64643397417256       -2.62389159423228       -0.06011773402846
H            3.79521535238165        1.27054122547014        1.06109912163902
H            4.01527967831202        1.21752001220006       -0.69618316192895
H            2.68181462306597        2.15960524652505        0.02664182900317
H            3.61233529751897       -1.72014012644259        0.05283510620757
H           -1.61974523574635        3.01192962558504       -0.02804195178018
H           -2.81051462450350        2.02873486614125       -0.94946920248650
H           -2.84049512437287        2.01434111819501        0.83009219712683
H           -1.47201185983614       -3.22446685182605        0.83581924862058
H           -1.44670783934634       -3.21892556403513       -0.95431781102311
H           -2.69364238653013       -2.35480113590658       -0.07592317433101
H            1.35332448121332       -2.93653777248279        0.02409407188547
25
 energy: -43.358763952499 gnorm: 0.471286444842 xtb: 6.6.1 (8d0f1dd)
C            3.29558721921651        1.27599029457817        0.10676444877391
N            2.37370509247127        0.14382091274793        0.01879750401040
C            2.70456581676443       -1.28258041203302        0.03169712143541
N            1.54015041471157       -1.94352111890412        0.01446372341175
C            0.50785514072551       -1.10316153180321       -0.02044067225667
C            1.01535609488908        0.21638448301310       -0.01658438470720
C            0.14621736556134        1.32106599594368       -0.04023082439287
O            0.38955865706283        2.55661365655379       -0.04888583987926
N           -1.29035921967345        0.94722959198259       -0.04538481183747
C           -2.18986283727267        2.06413928782575       -0.04950547512455
C           -1.77133326080256       -0.28700589964642       -0.06304589224436
O           -2.98831354527346       -0.47829679407857       -0.07568045108076
N           -0.91233045019509       -1.45626762497929       -0.05202908777900
C           -1.89123818402240       -2.55908683171776       -0.06217177613171
H            3.85062071908866        1.32978423878763        1.05323555309904
H            4.04475079329637        1.33244503253992       -0.71733261158761
H            2.67263185910574        2.22978904656808        0.10107169717316
H            3.66169247101321       -1.77599809212811        0.06174141891051
H           -1.57723498792179        2.99247780339872       -0.02511997689520
H           -2.80061708356864        1.97408980264082       -0.94861112205806