25
 energy: 0.000000000000 xtb: 6.6.1 (8d0f1dd)
C            3.23720163006194        1.16630919979326        0.08434469647475
N            2.29877817382611        0.07527477071623        0.03981603040599
C            2.58028210190900       -1.21425402444508        0.03006176031096
N            1.43813958087363       -1.93419271955128        0.00098261760884
C            0.39035688448383       -1.05887472636071       -0.00790371836672
C            0.93510056364412        0.21347819449412        0.01709077491437
C            0.09450143893243        1.40504303904423       -0.00410947031874
O            0.49712751527797        2.54126714362870       -0.00342325688240
N           -1.25076640035757        1.06271879480407       -0.03085478223738
C           -2.21907211982101        2.15522099834493       -0.05001256985998
C           -1.81739487048744       -0.20012725993278       -0.04692818574614
O           -2.99983886758376       -0.37846417018721       -0.07008878229737
N           -0.92618586207120       -1.30210215599479       -0.03682761578324
C           -1.46982264913417       -2.64643102187190       -0.06029820460571
H            3.71247264356769        1.21471455160235        1.06488849150277
H            4.00791497605742        1.03430808813993       -0.67357694370751
H            2.69910007168542        2.09770118228144       -0.09130154882931
H            3.56654120610678       -1.63682992603973        0.04233140067262
H           -1.67107961066214        3.09322851271934       -0.02552706933167
H           -2.82428953597071        2.09428624779827       -0.95318082946668
H           -2.87644029173232        2.07745725625962        0.81450067533302
H           -1.17061996399332       -3.19584890659852        0.83242232437030
H           -1.14560257411436       -3.17511610292205       -0.95688275822323
H           -2.55549792440841       -2.55659984320617       -0.07459039797972
H            1.38130855184625       -2.94313852034425       -0.01389874181052
25
 energy: -5.384893986727 xtb: 6.6.1 (8d0f1dd)
C            3.24473385282392        1.17974698274240        0.08675270319865
N            2.30945430215286        0.09697663142843        0.03782731288669
C            2.60191191789818       -1.23088129042630        0.03018690723791
N            1.43030305277784       -1.93959611589933        0.00096436021936
C            0.39793105869650       -1.05691473542410       -0.00821891341754
C            0.93140233302308        0.22251457228853        0.01533005110145
C            0.10277589107821        1.39581266090861       -0.00521941510873
O            0.49895113629705        2.56187287379718       -0.00457445046656
N           -1.25892705228730        1.04974348016465       -0.03112316259899
C           -2.21956814999633        2.14545883699321       -0.04986616496245
C           -1.82184772333235       -0.20173434135685       -0.04735433468992
O           -3.01844694120660       -0.38408880417470       -0.07050005955518
N           -0.93322864839080       -1.30259166328183       -0.03708267374237
C           -1.47719546598139       -2.64359642612585       -0.06035524289565
H            3.72367359349417        1.22588749346763        1.06848938452735
H            4.01265951341838        1.04594085010148       -0.67660481491987
H            2.69757562009690        2.10427831477831       -0.08819809646647
H            3.58060335056750       -1.65616401978141        0.04291793398469
H           -1.65850020680446        3.07701321707837       -0.02533062610070
H           -2.82486156960854        2.09165610638181       -0.95430123366766
H           -2.87707859947826        2.07494650243098        0.81599982676112
H           -1.17878082654303       -3.19747870501486        0.83170724363939
H           -1.15365774790581       -3.17695691927309       -0.95627929622900
H           -2.56217653207599       -2.54953080250892       -0.07473651729984
H            1.36450850922246       -2.94328609712236       -0.01339682528838
25
 energy: -6.469600939011 xtb: 6.6.1 (8d0f1dd)
C            3.25531891229449        1.19495318699334        0.09005064702559
N            2.32236875448420        0.11282579076517        0.03424575497652
C            2.61984189390682       -1.24366878112606        0.03056039097546
N            1.42332531187681       -1.93753235052814        0.00163046639611
C            0.40552660660468       -1.05409736618675       -0.00908612170145
C            0.93165496249825        0.23071826464002        0.01211511750456
C            0.11164675307531        1.38154735838836       -0.00823891915261
O            0.48635164066565        2.56599203518088       -0.00840982615925
N           -1.26724686266319        1.03277027299059       -0.03216800946319
C           -2.21787309445839        2.13119212596891       -0.04965078834841
C           -1.82265564824444       -0.20753760546534       -0.04816012637222
O           -3.02457925959605       -0.39602456382791       -0.07087795508438
N           -0.93758961076046       -1.30321501142655       -0.03760719268219
C           -1.49104481667090       -2.63835781929006       -0.06044292619023
H            3.74583288822333        1.24702773795585        1.06871226350816
H            4.02157813351821        1.07646804008162       -0.68017478793726
H            2.69889237497163        2.11599830919354       -0.07690789247972
H            3.59198723280437       -1.67704195769487        0.04445611941992
H           -1.63390195242451        3.04939782395741       -0.02500948161312
H           -2.82407382609910        2.08626285037590       -0.95470909736953
H           -2.87544276517232        2.06952076028198        0.81761624962708
H           -1.20203718596122       -3.20006674777053        0.83106741674417
H           -1.17651896351754       -3.18021274413357       -0.95576008845389
H           -2.57535249221253       -2.52910618874145       -0.07500818580955
H            1.34620568079309       -2.93878481841031       -0.01120913121327
25
 energy: -5.573975306320 xtb: 6.6.1 (8d0f1dd)
C            3.26601029501207        1.21511453054127        0.09407754327141
N            2.33934755532434        0.12316480194230        0.02993536995056
C            2.63692371175409       -1.25189193459055        0.03087298311875
N            1.42565849540336       -1.93409739785282        0.00349344573736
C            0.41543575267812       -1.05512512639815       -0.01054612672800
C            0.93902942434159        0.23434536018810        0.00758744660444
C            0.11948051674168        1.36819021850870       -0.01454946664230
O            0.46599864927329        2.56408217863946       -0.01719222276252
N           -1.27179779644038        1.01271487912604       -0.03500919151329
C           -2.21211392334453        2.11270195568351       -0.04960441174823
C           -1.81963946365544       -0.22075899973477       -0.04983114427688
O           -3.02286634177963       -0.41696325514987       -0.07148725648977
N           -0.93505349020107       -1.30906603492099       -0.03861659062870
C           -1.51570474823573       -2.63252497743517       -0.06045187155827
H            3.77703654883880        1.27331523029198        1.06440790216606
H            4.02850736932077        1.13229929363891       -0.68773405218717
H            2.69707726033936        2.13420275788862       -0.05096141486504
H            3.60359681048812       -1.69681557418830        0.04742871296382
H           -1.60023343409224        3.01334018497021       -0.02506146780396
H           -2.82010437511806        2.07665178653836       -0.95413184569082
H           -2.86806181698756        2.05920550981473        0.81975734064819
H           -1.25072976683002       -3.20548197551459        0.83195839213732
H           -1.22417566435923       -3.18741752590641       -0.95619549336276
H           -2.59823555877630       -2.48575048697192       -0.07535970467397
H            1.33682865824078       -2.93440679693660       -0.00575297951894
25
 energy: 8.113028491328 xtb: 6.6.1 (8d0f1dd)
C            3.29809715362645        1.28179140468430        0.10790038615502
N            2.39372968663742        0.15476164890539        0.01412435433409
C            2.68768399687416       -1.27934595974055        0.03211846203050
N            1.43086232679261       -1.92105307589337        0.01045759646124
C            0.44442719994092       -1.05815296289852       -0.01580308639956
C            0.96227521112121        0.24624325371427       -0.00883940113858
C            0.14275195000123        1.32576137830316       -0.03742760766315
O            0.38955784003873        2.55658492859803       -0.04899089675264
N           -1.29036126346770        0.94675009271129       -0.04547765329044
C           -2.18851406803026        2.05895244504549       -0.04950431478236
C           -1.81289342649737       -0.26659544443351       -0.05588892417283
O           -3.01910327434716       -0.48777353143366       -0.07371384290326
N           -0.92753116251006       -1.33116185799690       -0.04222235015309
C           -1.59078502885658       -2.62019514470034       -0.06017229219401
H            3.88247049594184        1.35511318018513        1.04763612673891
H            4.04454115573822        1.32564461104657       -0.71636150465507
H            2.68692891336317        2.19569783613925        0.04458609202751
H            3.63470691164642       -1.76694943721665        0.05816069079145
H           -1.47430810973440        2.89478291537213       -0.02597770301822
H           -2.80372468604430        2.05976082416387       -0.95138410516151
H           -2.83848652153893        2.04037172379541        0.82744105476935
H           -1.40170834643488       -3.22706998306463        0.83512187864309
H           -1.37043183781791       -3.21615441580722       -0.95584493226718
H           -2.66776407941153       -2.35994008631235       -0.07717170350106
H            1.29979363090485       -2.91879574099456        0.01426757224904
25
 energy: 19.686231079215 xtb: 6.6.1 (8d0f1dd)
C            3.31275843897030        1.31996844182405        0.11481442628198
N            2.42498288593966        0.17172260971199        0.01120720727056
C            2.72917529655642       -1.28475971961646        0.03050955410425
N            1.45678598611114       -1.92582251730365        0.01375397081937
C            0.46985762718108       -1.06965539027588       -0.01837099870443
C            0.98257089705248        0.24140646372666       -0.01470849855324
C            0.16136206219801        1.30560570493610       -0.05028301380272
O            0.39422201491990        2.54854669661372       -0.06678507092682
N           -1.28027911001480        0.91804983383643       -0.05255647639247
C           -2.18295826762074        2.01734394520501       -0.04965838130177
C           -1.79746002832160       -0.28558200712105       -0.05970321410130
O           -3.00838647765943       -0.51121194956836       -0.07470019346601
N           -0.91646480194761       -1.34508311373165       -0.04455112943245
C           -1.65401381737899       -2.60240976726586       -0.06024348170755
H            3.93024113764007        1.39871993186289        1.03901819893977
H            4.04640954732633        1.42287203924548       -0.72925091347256
H            2.67550658637820        2.22431825590712        0.09281899979726
H            3.67291348366308       -1.77699275384283        0.06282486585576
H           -1.45927312332195        2.84330272865039       -0.02613308093411
H           -2.79933412750408        2.01386533761514       -0.95026716887591
H           -2.82591975147756        1.98992085910207        0.83180363462526
H           -1.52606363298266       -3.23325491999727        0.83852419102197
H           -1.49469078509184       -3.22591425525583       -0.95958738190897
H           -2.72231375076710       -2.24506636656298       -0.07648619320551
H            1.32258637808780       -2.92086148552323        0.02504404421690
25
 energy: 25.054547263005 xtb: 6.6.1 (8d0f1dd)
C            3.31782197822481        1.34225622755405        0.11835092545892
N            2.44224248484543        0.18106766303176        0.01324641469884
C            2.75986733039351       -1.28078917135958        0.02901335002315
N            1.48547488752625       -1.93308874800421        0.01456180731838
C            0.48831043053634       -1.08480969555263       -0.01959676601552
C            0.99756016443005        0.23086623371119       -0.01616811350959
C            0.17938285529097        1.29595705906745       -0.05792764958649
O            0.42349974374987        2.53957262558680       -0.07619062830521
N           -1.25823308261905        0.90990146470456       -0.05781114464918
C           -2.18264639037223        1.98882914429793       -0.04938162393155
C           -1.77834140882125       -0.28712378113989       -0.06220597269122
O           -2.99531805092958       -0.49107026668962       -0.07529761141249
N           -0.90998958857975       -1.35763094787926       -0.04608538396084
C           -1.70528290608340       -2.59096105398038       -0.06054271082790
H            3.94741117245143        1.42484906410697        1.03496486050781
H            4.04271438734591        1.46610652796442       -0.73143071758684
H            2.66781667153139        2.23776408967838        0.11177239881004
H            3.70881205708323       -1.76214064953354        0.06551201658223
H           -1.48598436381804        2.83055233574870       -0.02492693786631
H           -2.80114012066342        1.96188899357568       -0.94801328465671
H           -2.82191499799100        1.93148310232803        0.83349470912430
H           -1.62102682639819       -3.23278133741374        0.83886032821519
H           -1.59297615993568       -3.22628905622473       -0.96262711130235
H           -2.76172741423079       -2.17678395074191       -0.07436477796954
H            1.36588181496929       -2.92859727066441        0.02982751968018
25
 energy: 31.146377398016 xtb: 6.6.1 (8d0f1dd)
C            3.32145115940169        1.36352990171162        0.12144177167651
N            2.45853118236545        0.19038398112078        0.01635058377281
C            2.79169902216099       -1.27405561456146        0.02814846395729
N            1.51729867405692       -1.93952036563642        0.01472875277425
C            0.50724046076283       -1.10254657793727       -0.02043222596729
C            1.01245315803836        0.21895642853938       -0.01665598858220
C            0.20099738986623        1.28732325472319       -0.06483821260232
O            0.45529268867654        2.53206484861771       -0.08462034236413
N           -1.22952478075216        0.90433649441701       -0.06356920755372
C           -2.18113620304820        1.95924008640560       -0.04887158288382
C           -1.75420217386256       -0.28608669334990       -0.06498309605859
O           -2.97848181125292       -0.45901594682476       -0.07630158483757
N           -0.90505747214745       -1.37233908177912       -0.04757062203426
C           -1.76263601185135       -2.57980243236599       -0.06093563136476
H            3.95897214985590        1.45173913922124        1.03254797305825
H            4.03894338305329        1.50231484829466       -0.73231990528623
H            2.65950259806616        2.25012068827756        0.12452851935219
H            3.74869562669843       -1.73932103158945        0.06908418127505
H           -1.51891634358203        2.82427106940535       -0.02247244664909
H           -2.80363604306733        1.90214420411511       -0.94460677474639
H           -2.81802871707692        1.86326144493552        0.83438108164917
H           -1.72220445750149       -3.23149303875830        0.83772787982447
H           -1.69927824049704       -3.22446887288203       -0.96550639953174
H           -2.80538971788294       -2.11513424235454       -0.07137401501258
H            1.41962914745572       -2.93687388957347        0.03315272428197
25
 energy: 37.044357486293 xtb: 6.6.1 (8d0f1dd)
C            3.32317541521108        1.38110116203172        0.12322860079784
N            2.47202722607551        0.19844266201424        0.02081355929228
C            2.82212487182982       -1.26406862865103        0.02812704886909
N            1.55102970957602       -1.94515919923656        0.01428731692336
C            0.52517027496252       -1.12155400493410       -0.02058283385039
C            1.02622845279945        0.20611143508030       -0.01552777851376
C            0.22398162270705        1.28170492337837       -0.06983933270442
O            0.49161021538533        2.52613707208460       -0.09031485804873
N           -1.19621973308209        0.90344810331536       -0.06915161683091
C           -2.17968460643799        1.93112745406775       -0.04797271313325
C           -1.72699928060273       -0.28245593939176       -0.06784261849897
O           -2.95860085399290       -0.41926337411095       -0.07794163167963
N           -0.90212592771455       -1.38794020070335       -0.04880621125645
C           -1.82210799802151       -2.56937500481452       -0.06145850702117
H            3.96144403582897        1.47692397919306        1.03230447267306
H            4.03622346189495        1.52402658493251       -0.73056317469182
H            2.65234863310719        2.25932529947368        0.12632343700647
H            3.78988906698896       -1.70753081342319        0.07325560397807
H           -1.56177756013022        2.82643589092743       -0.01840698934220
H           -2.80606718418636        1.83858223783830       -0.94033779735187
H           -2.81451060109642        1.78970962961985        0.83424331356746
H           -1.82203434551704       -3.22869954313545        0.83497469069299
H           -1.80575003178410       -3.21901627596043       -0.96822404401547
H           -2.85001205340201       -2.06381424565925       -0.06764767298321
H            1.48285185753721       -2.94517060176455        0.03409363226888
25
 energy: 44.383102036182 xtb: 6.6.1 (8d0f1dd)
C            3.32463352682986        1.39666799661815        0.12373680251683
N            2.48454822116900        0.20621716560201        0.02606835864591
C            2.85242632219098       -1.25167607834471        0.02915170848838
N            1.58665468866536       -1.94937013109654        0.01377424382309
C            0.54339272778381       -1.14102325091368       -0.02000382984959
C            1.03954707988432        0.19328437474750       -0.01306785072329
C            0.24750108016873        1.27737561233967       -0.07293467958491
O            0.52927204166671        2.52094432087252       -0.09359538782053
N           -1.16181622932234        0.90422299370910       -0.07427697050001
C           -2.17808096372337        1.90357563216543       -0.04661913196117
C           -1.69786795317279       -0.27962662455525       -0.07098503705312
O           -2.93560988110088       -0.38220897056531       -0.08078117198287
N           -0.89995174536650       -1.40457961265918       -0.04983050380226
C           -1.88482124337316       -2.55891242760013       -0.06214228591445
H            3.95835340098291        1.50256436472752        1.03377622690289
H            4.03644256795435        1.53676792211939       -0.72751922697388
H            2.64650870822260        2.26726079354931        0.11926215111080
H            3.83236914818012       -1.66949400697514        0.07831972811956
H           -1.61015270510733        2.83156391614556       -0.01267937131267
H           -2.80699331381047        1.77441873083364       -0.93549761067250
H           -2.81015532424725        1.71485223709947        0.83324975496402
H           -1.92458452201875       -3.22562639616992        0.83092289687173
H           -1.91570907024901       -3.21113367824318       -0.97098655214425
H           -2.89686688137727       -2.01494012648209       -0.06344058346730
H            1.55317498710651       -2.95209615475214        0.03313221846686
25
 energy: 49.283050497795 xtb: 6.6.1 (8d0f1dd)
C            3.30714424219060        1.41068425710412        0.12542478860552
N            2.48589218234171        0.20398842873290        0.03825143332521
C            2.87785069849377       -1.21814311775351        0.02477542648943
N            1.64918220415934       -1.95986220681762        0.01069838274558
C            0.55296548628211       -1.18509337342764       -0.02008423773964
C            1.05760075994871        0.15499495586611       -0.00828947795287
C            0.27516127130234        1.29388959856235       -0.08509108340169
O            0.60552594769809        2.50826933347648       -0.10595573216149
N           -1.07714151932866        0.93553233772945       -0.09064449921449
C           -2.16764409788099        1.88512173831856       -0.04580419984415
C           -1.64612196285603       -0.26073493929673       -0.07532945605424
O           -2.90151123114138       -0.22811937811488       -0.08009280625520
N           -0.91233300911920       -1.45554125573833       -0.05198741317686
C           -1.97218877596928       -2.57269888537442       -0.06241581180162
H            3.93711560719880        1.50900695754739        1.02636694934497
H            3.99228749647286        1.54119763204694       -0.71996558045605
H            2.62984397185201        2.26657850731031        0.12797547613467
H            3.88849013742622       -1.58692536504690        0.08572516063500
H           -1.70309574791381        2.89273875728387       -0.00681229429610
H           -2.81297928899006        1.67653833019685       -0.92311425154148
H           -2.79984848836183        1.59472918100639        0.82998157240082
H           -2.05664291696657       -3.20967513539151        0.81833741616545
H           -2.06083506352586       -3.19080617426374       -0.96345843585659
H           -2.93294268167038       -2.03961183377257       -0.05752801891672
H            1.69643944629365       -2.97702974801186        0.03607058896981
25
 energy: 62.988997006506 xtb: 6.6.1 (8d0f1dd)
C            3.30258187673184        1.44710140939374        0.13393122615517
N            2.50449761578456        0.21751485760732        0.03919002410736
C            2.91143692476768       -1.20271740479957        0.02130111035847
N            1.69581419530941       -1.95967069550497        0.01284850575975
C            0.57509905698737       -1.21083814679562       -0.02255327705851
C            1.07527514279616        0.13732571386363       -0.01390706876979
C            0.28711937564121        1.28319456679004       -0.10370894318939
O            0.61501721723099        2.49085681121544       -0.13322104447887
N           -1.04977476612925        0.92012492045363       -0.10628181199428
C           -2.14291735491304        1.86943853947588       -0.04601424851706
C           -1.61535852089432       -0.29465052893672       -0.08110142800874
O           -2.86901772315597       -0.24643176268675       -0.08041671460807
N           -0.90579625406489       -1.50277043621239       -0.05606085487905
C           -2.04826026909570       -2.57720398630679       -0.06271637567095
H            3.97021435696007        1.52914311051691        1.00996428735236
H            3.94722391649835        1.63430339015475       -0.73745950200303
H            2.60279169065733        2.28808257591058        0.19577802417239
H            3.92836972826034       -1.55843373046163        0.09655118313987
H           -1.68800673267878        2.88060308572766       -0.00761826370465
H           -2.79820860154721        1.64840130184810       -0.91290638183992
H           -2.76509243466063        1.55885562534556        0.83085125945983
H           -2.20804095798143       -3.21830118119671        0.81475552999352
H           -2.21643198923225       -3.20189024946870       -0.95868519021770
H           -2.97307437747599       -1.96334032254371       -0.05471850665875
H            1.77675355214030       -2.97966886121772        0.04923235724728
25
 energy: 73.558908967269 xtb: 6.6.1 (8d0f1dd)
C            3.27967198791211        1.48367334977987        0.14785023062164
N            2.51363409926457        0.22218095858921        0.03516490823138
C            2.91925427095713       -1.16303357218728        0.01178183617089
N            1.75953451227493       -1.95423378707539        0.01815713885559
C            0.59357269605185       -1.22857293526517       -0.02825352200222
C            1.10018798111485        0.11552125135185       -0.03206958295218
C            0.26897965867344        1.28069056132451       -0.13236641642765
O            0.61257000750249        2.45767593260415       -0.18085899235095
N           -1.02915998765424        0.89545673462683       -0.12701081909305
C           -2.09954058135579        1.88121523986227       -0.05040508610781
C           -1.59147647332029       -0.36248157078627       -0.08601472573477
O           -2.82273386093531       -0.33099743942810       -0.07148504118272
N           -0.88163942635800       -1.57126729170383       -0.06387479468775
C           -2.10543013568773       -2.60225381328545       -0.06348824678213
H            4.02484827031563        1.49472759260600        0.96097566815260
H            3.81555615895766        1.77591193022668       -0.76958093063231
H            2.56117990098673        2.29218538889227        0.34906677968713
H            3.93303324552086       -1.52376594597071        0.11172672733484
H           -1.62975372115603        2.87143242473300       -0.02303441423929
H           -2.76714937668684        1.68088862883549       -0.90235367469320
H           -2.70389385710719        1.59576395548114        0.83252750341065
H           -2.36541121801192       -3.23498581735426        0.81088907162011
H           -2.36976677888506       -3.23341883170547       -0.94062561959348
H           -2.96703454474973       -1.88385887005606       -0.05747272924572
H            1.86318184031196       -2.96942547192332        0.07778862778759
25
 energy: 95.271012470426 xtb: 6.6.1 (8d0f1dd)
C            3.26811766071571        1.51974244048629        0.15667017321243
N            2.53095046320233        0.23804754738813        0.03241660077087
C            2.95463007231534       -1.12550087531649        0.01382350076072
N            1.81918714272356       -1.94543704161360        0.02452838106575
C            0.61920752293108       -1.24842118712590       -0.02997136926436
C            1.11929427950522        0.10419249659070       -0.04435951499345
C            0.30308161907490        1.26104686642236       -0.14595444671360
O            0.64427945679087        2.44459543902418       -0.21122071174017
N           -0.99837574747762        0.86484334031340       -0.13438016481347
C           -2.06918026618547        1.84424027632221       -0.05229249105928
C           -1.56139500233891       -0.37495472108184       -0.09409896506372
O           -2.79603756843405       -0.29326635662492       -0.07159403624575
N           -0.87588340138757       -1.60851952206302       -0.06966465848077
C           -2.20574087882856       -2.62421295997303       -0.06387997402537
H            4.06657136185153        1.50377121268903        0.92932516529981
H            3.74637440153156        1.88236615204002       -0.79227824701715
H            2.53715667308184        2.30897669997762        0.43576366256010
H            3.97326836146875       -1.46252345693472        0.12969165948578
H           -1.61712708687336        2.83211464289860       -0.02667166235564
H           -2.73502746875328        1.65642176639130       -0.89967269961581
H           -2.65295427461836        1.56880687562312        0.83771406368923
H           -2.53842781774727       -3.26467850627509        0.80614072333465
H           -2.54492797860179       -3.26574299839539       -0.93534755675153
H           -3.03386566906599       -1.87638108203264       -0.05790508543273
H            1.95903881305553       -2.95049844655829        0.09025154954070
25
 energy: 110.585116695693 xtb: 6.6.1 (8d0f1dd)
C            3.25130769661679        1.54914166336546        0.16778741288145
N            2.54016301662032        0.25681375591712        0.02186895381056
C            2.97346912737910       -1.06096158544476        0.01919884533547
N            1.88116876757829       -1.92326815962125        0.03249538671476
C            0.64415723488965       -1.25251068301435       -0.03591404406063
C            1.13483078154564        0.10764663109794       -0.07187826750955
C            0.32662784684973        1.24596078392524       -0.16508922357620
O            0.65836312971377        2.44318248532656       -0.24909925613981
N           -0.98520356999489        0.82246825112685       -0.13571084700451
C           -2.02932160070136        1.82462423055713       -0.05464865819993
C           -1.54794586737457       -0.39542298951884       -0.09504165838960
O           -2.77953316870818       -0.28970758143280       -0.05652966157342
N           -0.85728151651716       -1.64037044387654       -0.07881597250005
C           -2.31122155983661       -2.68217573193136       -0.06632629225354
H            4.11138765645054        1.48854999218982        0.86843463124045
H            3.64214005346464        1.97090947678774       -0.78362180394928
H            2.55335154632580        2.30871535719674        0.54121160543859
H            3.99131132456872       -1.38451451330426        0.14516332487652
H           -1.56705720728998        2.80102345685963       -0.03977645188647
H           -2.69762071146734        1.67681071038762       -0.90123751687124
H           -2.59491611572982        1.59639376461178        0.85293851291171
H           -2.68039820463646       -3.31576896670565        0.79539787527088
H           -2.68102144535343       -3.32713442115312       -0.92291259333554
H           -3.10481740999207       -1.92062467586684       -0.06862807930541
H            2.04027486353485       -2.91075220530787        0.10776767422200
25