25
 energy: 0.000000000000 xtb: 6.6.1 (8d0f1dd)
C            3.23720163006194        1.16630919979326        0.08434469647475
N            2.29877817382611        0.07527477071623        0.03981603040599
C            2.58028210190900       -1.21425402444508        0.03006176031096
N            1.43813958087363       -1.93419271955128        0.00098261760884
C            0.39035688448383       -1.05887472636071       -0.00790371836672
C            0.93510056364412        0.21347819449412        0.01709077491437
C            0.09450143893243        1.40504303904423       -0.00410947031874
O            0.49712751527797        2.54126714362870       -0.00342325688240
N           -1.25076640035757        1.06271879480407       -0.03085478223738
C           -2.21907211982101        2.15522099834493       -0.05001256985998
C           -1.81739487048744       -0.20012725993278       -0.04692818574614
O           -2.99983886758376       -0.37846417018721       -0.07008878229737
N           -0.92618586207120       -1.30210215599479       -0.03682761578324
C           -1.46982264913417       -2.64643102187190       -0.06029820460571
H            3.71247264356769        1.21471455160235        1.06488849150277
H            4.00791497605742        1.03430808813993       -0.67357694370751
H            2.69910007168542        2.09770118228144       -0.09130154882931
H            3.56654120610678       -1.63682992603973        0.04233140067262
H           -1.67107961066214        3.09322851271934       -0.02552706933167
H           -2.82428953597071        2.09428624779827       -0.95318082946668
H           -2.87644029173232        2.07745725625962        0.81450067533302
H           -1.17061996399332       -3.19584890659852        0.83242232437030
H           -1.14560257411436       -3.17511610292205       -0.95688275822323
H           -2.55549792440841       -2.55659984320617       -0.07459039797972
H            1.38130855184625       -2.94313852034425       -0.01389874181052
25
 energy: -5.397475720755 xtb: 6.6.1 (8d0f1dd)
C            3.24403126365075        1.17774188721830        0.08675484189987
N            2.30821960540336        0.09572213286750        0.03772551675059
C            2.59980757390376       -1.23239585953403        0.03006560465954
N            1.42774745196259       -1.94011765395447        0.00082431301607
C            0.39654856766916       -1.05616096963073       -0.00827000772984
C            0.93035837329307        0.22262733976385        0.01524903106028
C            0.10180671330861        1.39606270224856       -0.00526354514975
O            0.49838489167154        2.56194888033296       -0.00464401586739
N           -1.26017734647629        1.05059247477015       -0.03111377542964
C           -2.22042380075630        2.14669912147497       -0.04985162007537
C           -1.82342023018987       -0.20072698662355       -0.04731575920209
O           -3.02005661599252       -0.38310459469080       -0.07042193749190
N           -0.93407278690474       -1.30102824441410       -0.03705710698716
C           -1.47249186560570       -2.64296906713740       -0.06022097484271
H            3.72232694598647        1.22363540184415        1.06878929647718
H            4.01207981534090        1.04303624360698       -0.67628656875561
H            2.69724783023828        2.10238864566698       -0.08872034213811
H            3.57805202751732       -1.65863544160849        0.04271545299370
H           -1.65888047523188        3.07797927886769       -0.02535364431877
H           -2.82581101379030        2.09323081726700       -0.95425637957211
H           -2.87799191145987        2.07659065206140        0.81601811065217
H           -1.16962294509639       -3.19449141105658        0.83187936075764
H           -1.14457016963020       -3.17396652434621       -0.95602290922118
H           -2.55775671443775       -2.55180057256134       -0.07459399606293
H            1.36087948356224       -2.94382965026075       -0.01359504927517
25
 energy: -6.571418784719 xtb: 6.6.1 (8d0f1dd)
C            3.25179958823315        1.18566107312660        0.08945458559414
N            2.31600390086435        0.10764934235165        0.03403738265941
C            2.61044956883517       -1.24631840482929        0.03020882349624
N            1.41546017754804       -1.93858726272848        0.00113593432680
C            0.40020466260477       -1.05155488413626       -0.00906331162228
C            0.92748694843204        0.23089502138825        0.01229639016033
C            0.10795282510332        1.38408836975486       -0.00775202268682
O            0.48590220261761        2.56572827276380       -0.00790004162624
N           -1.27048368432399        1.03862560899638       -0.03187407516655
C           -2.22079166509002        2.13855855596478       -0.04962271507105
C           -1.82637155728164       -0.20270199335837       -0.04782609864802
O           -3.02733130353451       -0.39120155567693       -0.07052827584166
N           -0.93996171697885       -1.29784743888619       -0.03738313331423
C           -1.47393467056488       -2.63815135486628       -0.06001204578469
H            3.73805682325852        1.23531728586814        1.06973424871564
H            4.01899281235326        1.06084060249295       -0.67824055414156
H            2.69906241057976        2.10801870905835       -0.08075189589913
H            3.58167607941256       -1.68030991023470        0.04351554180437
H           -1.64003953628008        3.05880796545720       -0.02514665615884
H           -2.82730355786144        2.09325482840182       -0.95434899944635
H           -2.87873063322578        2.07676097964055        0.81723731375587
H           -1.16977851068807       -3.19179913290855        0.83155321317402
H           -1.14457172947544       -3.17182153664140       -0.95494104270621
H           -2.55915744510691       -2.54480541085549       -0.07454450762924
H            1.33762267850525       -2.94007912797135       -0.01220416179666
25
 energy: -6.615794183117 xtb: 6.6.1 (8d0f1dd)
C            3.25632542852037        1.18890212236966        0.09135996809275
N            2.32072233386247        0.10914503539965        0.03066376550084
C            2.61161472753654       -1.25295360823852        0.03012885942008
N            1.40971849255070       -1.93619424703299        0.00187679666240
C            0.40103052695599       -1.04907858070071       -0.00998351232169
C            0.92851456569496        0.23440106524047        0.00947998915963
C            0.10950183548643        1.38035005587020       -0.01111642111709
O            0.47173003344046        2.56603525770745       -0.01263241585813
N           -1.27655299796917        1.03310041287909       -0.03325769643807
C           -2.22039102098790        2.13526805152725       -0.04953962472537
C           -1.82804083768092       -0.20605897139311       -0.04847772302146
O           -3.02846789488252       -0.40007846931353       -0.07051121887190
N           -0.94074481114887       -1.29643828336049       -0.03773899325528
C           -1.47349910582326       -2.63604343731431       -0.05960396566441
H            3.75061730872218        1.23935568778775        1.06839229634917
H            4.02247354316903        1.07881308577358       -0.68050771281802
H            2.70101675238991        2.11234563546639       -0.06900160672991
H            3.57907844724993       -1.69493544356422        0.04428373661872
H           -1.62610842154514        3.04688968287577       -0.02530608259066
H           -2.82822741569547        2.09513467702842       -0.95364569356712
H           -2.87768781026066        2.07848779087921        0.81819350283669
H           -1.17054540976984       -3.18963341152669        0.83241632156376
H           -1.14505737400377       -3.17062950467931       -0.95435023622259
H           -2.55877253083684       -2.53967912514492       -0.07433191128700
H            1.32396630296159       -2.93747687636406       -0.00975652556805
25
 energy: -6.397640786285 xtb: 6.6.1 (8d0f1dd)
C            3.26211770679939        1.19306002349837        0.09557042036674
N            2.32862371318393        0.10813988709455        0.02373000672437
C            2.61064554801508       -1.26120334859886        0.02917589573734
N            1.40331626001263       -1.93240636584073        0.00369014728063
C            0.40143443437606       -1.04512863412664       -0.01224748826083
C            0.93243225747252        0.23891327196393        0.00304472403345
C            0.11072317968661        1.37800523970246       -0.02000374564855
O            0.44804921696785        2.56738599147668       -0.02515167008136
N           -1.28460311966441        1.02550528844914       -0.03740711618537
C           -2.21879047360009        2.13185845127677       -0.04964415669620
C           -1.83115023839816       -0.21274477697879       -0.05032346481605
O           -3.02975708344579       -0.41570884394109       -0.07028795547063
N           -0.93980684180376       -1.29525556995962       -0.03869125987630
C           -1.47143395584773       -2.63442547075407       -0.05826956437930
H            3.77356764381542        1.23538172994760        1.06515444548791
H            4.02241832311099        1.11508964706436       -0.68801578652992
H            2.70064039595932        2.11888689221516       -0.03772022429426
H            3.57171323956816       -1.71817911354444        0.04584425601151
H           -1.60464667623072        3.03033680216519       -0.02652989305239
H           -2.83026225476208        2.10086909987520       -0.95156682993945
H           -2.87340836330852        2.08342480309164        0.82056824494161
H           -1.17158940272736       -3.18642827060347        0.83542116851972
H           -1.14534794799884       -3.17045897682298       -0.95266395765503
H           -2.55671609021503       -2.53243433653616       -0.07351803060442
H            1.30404519697072       -2.93345481794213       -0.00312426946593
25
 energy: -5.181448761568 xtb: 6.6.1 (8d0f1dd)
C            3.27007267499479        1.20030173319953        0.10728359168587
N            2.34336152609907        0.10446798896887        0.00732873977165
C            2.60732775932724       -1.27405058333748        0.02479743140075
N            1.39367720317025       -1.92585688718870        0.00775598288895
C            0.40129746068699       -1.03719065199941       -0.01848095681521
C            0.94105871439718        0.24668855519390       -0.01371568204788
C            0.11315414853306        1.37600273617431       -0.04480310156228
O            0.40765676469975        2.57090751324933       -0.06027873170682
N           -1.29709762360392        1.01210458601255       -0.04988182034254
C           -2.21420873189430        2.12761218421980       -0.05053605363055
C           -1.83749461765278       -0.22535923377587       -0.05567019996523
O           -3.03266699884149       -0.44388468085438       -0.06932715233709
N           -0.93682000251308       -1.29424049830753       -0.04152386631340
C           -1.46579235947053       -2.63380233739509       -0.05396974124363
H            3.82528118338715        1.20538894897606        1.05738477011688
H            4.00792942963915        1.19915995086260       -0.71080161547409
H            2.69117483284638        2.13045021269259        0.05043535068637
H            3.55536447460095       -1.76091973210339        0.04939262040505
H           -1.56676614165786        3.00349837186082       -0.03153755639290
H           -2.83603903522242        2.11526935194383       -0.94581538127328
H           -2.85971783025757        2.09515930933223        0.82728575968267
H           -1.17193147340652       -3.18047934397054        0.84426977915189
H           -1.14373596832144       -3.17411291283330       -0.94652798678503
H           -2.55098977494131       -2.52219602943064       -0.07064329838555
H            1.26811905333738       -2.92588994931804        0.01461301463270
25
 energy: 3.869928329116 xtb: 6.6.1 (8d0f1dd)
C            3.28687396790618        1.21732886233893        0.13926107168853
N            2.37955550046647        0.09357339962223       -0.03685166195076
C            2.59786999348775       -1.30354848594415        0.01142190949993
N            1.37208657484913       -1.90985717817500        0.01599651462883
C            0.40024108061132       -1.01733507234216       -0.03545327645922
C            0.96347089366090        0.26517305649420       -0.05899201052406
C            0.12065899550269        1.37327983803646       -0.10988023028650
O            0.31287562488727        2.57946429005210       -0.15252466798292
N           -1.32574213768159        0.98076816813023       -0.08203751994679
C           -2.20216736739370        2.11912750165039       -0.05298228076293
C           -1.85313865690859       -0.25565020960166       -0.06804233380418
O           -3.03947529608402       -0.51146251200044       -0.06359685536821
N           -0.92843768929256       -1.29241183463170       -0.04864786764893
C           -1.45037545058640       -2.63403161035369       -0.04178496583264
H            3.95279212016969        1.11912813350657        1.03807807615957
H            3.96407324476720        1.41427658381467       -0.76564406615684
H            2.66354974362238        2.15554705914631        0.28137126043255
H            3.51301004356166       -1.86500580115235        0.05591510152403
H           -1.47819332447238        2.94194018094687       -0.04996916923139
H           -2.85289148542823        2.14968491370130       -0.92892619572099
H           -2.82091118957953        2.12793377636521        0.84666896861913
H           -1.17696643784913       -3.16396649184812        0.87169124737795
H           -1.13230804698030       -3.18802684714060       -0.92565584252286
H           -2.53529939368537       -2.50009446821002       -0.06942034569445
H            1.18106336038513       -2.90680665023348        0.05703903611046
25
 energy: -0.921146197168 xtb: 6.6.1 (8d0f1dd)
C            3.27945660286675        1.21065271247967        0.13397612564370
N            2.36857798739993        0.09457188338364       -0.02670920054148
C            2.59786923384735       -1.29125143627796        0.01502772487943
N            1.38098331577280       -1.91392353278933        0.01254685882962
C            0.39921517390327       -1.02190750852315       -0.03378448184163
C            0.95862166343468        0.25935212571585       -0.05210199897243
C            0.12041996293857        1.37828990765771       -0.09862984190837
O            0.34862177249239        2.57568149556595       -0.13716295767270
N           -1.31539973979873        0.99340388814917       -0.07487545792908
C           -2.20731355919261        2.12372348688358       -0.04908652161569
C           -1.84899701450519       -0.24554022829230       -0.06424080321922
O           -3.03699230021577       -0.49023675433449       -0.06104815807509
N           -0.92925539603503       -1.29314204310372       -0.04843833297309
C           -1.45216353526742       -2.63587691755620       -0.04510356960583
H            3.90776116072196        1.14250983078787        1.04280973478970
H            3.97362545503823        1.34585906732880       -0.73192639918825
H            2.67778149724380        2.13983203209313        0.21139966995939
H            3.52090048587662       -1.83189868698528        0.05160898699474
H           -1.51662214631278        2.96606500633433       -0.04609095514318
H           -2.85350070228872        2.14003084613417       -0.92661345468096
H           -2.82701438415763        2.11888230038499        0.84802519618681
H           -1.17766052358501       -3.16692059414735        0.86751267395520
H           -1.12813748553122       -3.18843435753593       -0.92793366631430
H           -2.53706714480764       -2.51036815789574       -0.07557008232242
H            1.20850428809740       -2.91032576328531        0.04344280691242
25
 energy: -0.501425798997 xtb: 6.6.1 (8d0f1dd)
C            3.27943991570942        1.20957250912320        0.14965683813079
N            2.37334902728975        0.09180124533194       -0.04056823751479
C            2.59352454835587       -1.29092868429436        0.01198425535078
N            1.37858293288711       -1.90999569355649        0.01277057158786
C            0.39710192660549       -1.01577903571388       -0.04474297471187
C            0.96314594833082        0.26302603200292       -0.07417626464144
C            0.12605047687098        1.38312676284169       -0.13080723498779
O            0.34747853026430        2.57756614595972       -0.18885381791398
N           -1.31733348922870        0.99328834047393       -0.08807423816411
C           -2.20873296736267        2.12480368720864       -0.04251957947349
C           -1.85210585382794       -0.24645487907692       -0.06751967465609
O           -3.03825879101682       -0.49606946721797       -0.05121674354747
N           -0.92747290417322       -1.29199604037269       -0.05525452489161
C           -1.44469644655591       -2.63807213800625       -0.04233718744816
H            3.92085248895226        1.11541268039833        1.04026784207171
H            3.95766653879653        1.37676232398742       -0.71173032558641
H            2.68183061644267        2.12831581663109        0.26176466316133
H            3.50833525093111       -1.84365171251087        0.04831745035488
H           -1.52261809411814        2.96664531396036       -0.05229379770585
H           -2.87233008232743        2.14588466398551       -0.90636111690214
H           -2.80738309987014        2.12201655854339        0.86862362612763
H           -1.18053780978905       -3.15740026023710        0.88029628467398
H           -1.10898725227105       -3.19974235987118       -0.91499551500528
H           -2.52946137007846       -2.51603987895628       -0.08644193290254
H            1.19477462711919       -2.90306332846204        0.05124553074135
25
 energy: 0.989591500889 xtb: 6.6.1 (8d0f1dd)
C            3.28211197013419        1.20836858713389        0.16977035812578
N            2.37981929929234        0.08953042707033       -0.05760424796738
C            2.58948671484941       -1.29438663766792        0.00876179105687
N            1.37251422922207       -1.90505635467558        0.01373250943437
C            0.39531858872932       -1.00845879831690       -0.05827000551017
C            0.96760458886691        0.26851887331487       -0.10131977351648
C            0.13135495544636        1.38658126789125       -0.17414445955193
O            0.33774219415821        2.58049313796504       -0.25998379961013
N           -1.32238848073801        0.99112980157985       -0.10637512587199
C           -2.20979582149272        2.12464571648176       -0.03420450854222
C           -1.85595192473504       -0.24831191200200       -0.07261563457639
O           -3.04015735552892       -0.50511589410715       -0.03945864414884
N           -0.92651711916227       -1.28954447920325       -0.06459665443474
C           -1.43637834946135       -2.63866886742700       -0.03892628699756
H            3.94403722702892        1.07815197003283        1.04157679576951
H            3.94245820524425        1.42444233352231       -0.69736145043268
H            2.68255115080820        2.12043889700226        0.33525326017786
H            3.49535125157091       -1.86234600637990        0.04594501238287
H           -1.52005627441999        2.96241387730278       -0.05974375402580
H           -2.89771993195850        2.15283051260081       -0.87973747944632
H           -2.78207991044110        2.12433293453506        0.89509923261983
H           -1.18325349312563       -3.14316084521312        0.89573518137878
H           -1.08662399131349       -3.21174865311802       -0.89901693196083
H           -2.52110841591528       -2.52079262345910       -0.09860361514387
H            1.17389536087712       -2.89525866269093        0.06312212693875
25
 energy: 2.746890628050 xtb: 6.6.1 (8d0f1dd)
C            3.28482761270651        1.20558842086136        0.19403035186981
N            2.38599452587022        0.08732317800812       -0.07637985437243
C            2.58471339967678       -1.29737142034015        0.00670740712683
N            1.36601695700766       -1.89937136505430        0.01458551324877
C            0.39328277150260       -1.00039911737983       -0.07470682362833
C            0.97194858782168        0.27461118917173       -0.13348437864712
C            0.13608322030987        1.39078615091196       -0.22806895460810
O            0.32586052219516        2.58315579082573       -0.35101151308666
N           -1.32805840807500        0.98964659386218       -0.12849245463064
C           -2.21096414755753        2.12483649481879       -0.02207695053241
C           -1.86010083591197       -0.24963986688130       -0.07838351021790
O           -3.04203635569917       -0.51372320853364       -0.02382370819094
N           -0.92562523752491       -1.28626182179033       -0.07709481895566
C           -1.42692135732481       -2.63868152183374       -0.03588136354751
H            3.96494031968985        1.03629507961976        1.04647729573285
H            3.92858954238890        1.47252798380201       -0.67484709006139
H            2.68549319590309        2.10959100156853        0.41415968457783
H            3.48187663530872       -1.88019229418870        0.04321195135917
H           -1.51854579049946        2.95923621462461       -0.06801550838616
H           -2.93021040640434        2.15969334800528       -0.84338820405713
H           -2.74989031619372        2.12503079058708        0.92955899150407
H           -1.18759620991821       -3.12437383669858        0.91362906073962
H           -1.05851763921204       -3.22553254226980       -0.87974642473052
H           -2.51153243293614       -2.52716059264725       -0.11560986240800
H            1.15258651481212       -2.88658604687736        0.07568506004924
25
 energy: 4.372706505977 xtb: 6.6.1 (8d0f1dd)
C            3.28685510447123        1.20078206530442        0.22096123823639
N            2.39068736877391        0.08601610445315       -0.09508176951197
C            2.57972613859577       -1.29849046909745        0.00710039663439
N            1.35975217281102       -1.89326983513147        0.01558204728045
C            0.39107313782199       -0.99214837807234       -0.09329865848559
C            0.97528207509870        0.28080723333485       -0.16875783373726
C            0.13979207039574        1.39516758945042       -0.29036082755441
O            0.31444881222441        2.58452653886328       -0.45997266207692
N           -1.33334826893038        0.98942581372940       -0.15298832993031
C           -2.21185427459566        2.12551934671899       -0.00567489063642
C           -1.86403539763941       -0.24952774968682       -0.08432480679490
O           -3.04363051675648       -0.51953593529971       -0.00446901244742
N           -0.92522945179480       -1.28231079406391       -0.09277192565510
C           -1.41709496078435       -2.63805383260436       -0.03399191367389
H            3.97891031613761        0.99320605831968        1.05551112379660
H            3.91751735134853        1.51325929585691       -0.64305773020965
H            2.69008359790743        2.09472159436986        0.49033947489003
H            3.46959859116597       -1.89307541348834        0.04022744027594
H           -1.52049981660220        2.95905549925793       -0.07581253878613
H           -2.96766887123208        2.16553611440718       -0.79728082453797
H           -2.71148021275832        2.12280789050446        0.97084431636900
H           -1.19366624210320       -3.10183210242086        0.93213414035602
H           -1.02565600601845       -3.24023025828772       -0.85820518754862
H           -2.50127579436236       -2.53592784928309       -0.13753700926213
H            1.13392774476119       -2.87739992496221        0.08791963915715
25
 energy: 5.800977111251 xtb: 6.6.1 (8d0f1dd)
C            3.28750773694353        1.19423809392076        0.24907224788314
N            2.39353283863892        0.08579588296993       -0.11293163403476
C            2.57468475189495       -1.29735191959502        0.01053766402762
N            1.35404778488056       -1.88689435549268        0.01711906619686
C            0.38876279542756       -0.98412202146247       -0.11327475084349
C            0.97733181923717        0.28674436893297       -0.20568320960969
C            0.14208599561644        1.39904562633776       -0.35876951501484
O            0.30380281602749        2.58294716579821       -0.58205313600159
N           -1.33794258211659        0.99052017021947       -0.17870999604733
C           -2.21151808694538        2.12678249190015        0.01440882762951
C           -1.86747261434070       -0.24788389571856       -0.09024111231961
O           -3.04456657808197       -0.52197996843613        0.01782194697602
N           -0.92538595119499       -1.27795687223301       -0.11128606652557
C           -1.40748080367251       -2.63678696388064       -0.03341737866256
H            3.98551180473877        0.94982081553147        1.06801829442997
H            3.90893278598795        1.54615712550847       -0.60503413045462
H            2.69407959451023        2.07657249004884        0.56181225921647
H            3.45922202698792       -1.89994711007351        0.03731188820634
H           -1.52550580168717        2.96211014611639       -0.08231549107271
H           -3.00644080966130        2.17007249872424       -0.74306079543659
H           -2.66786209180831        2.11757195879707        1.01616936227688
H           -1.20142707772877       -3.07652455733308        0.94995397149408
H           -0.98995300804251       -3.25487488422966       -0.83516423658569
H           -2.49069060230606       -2.54697847785700       -0.16327174899542
H            1.11895792463052       -2.86804920632171        0.10002156941486
25
 energy: 6.995420890419 xtb: 6.6.1 (8d0f1dd)
C            3.28601709354108        1.18653774029769        0.27661939891828
N            2.39422925013842        0.08684090511447       -0.12939880210077
C            2.56978180701735       -1.29374239258396        0.01708178284701
N            1.34915084281130       -1.88047065378504        0.01937896497167
C            0.38644236481461       -0.97682832378374       -0.13389651716211
C            0.97785703277512        0.29200256667744       -0.24281789921175
C            0.14259724484778        1.40163248213701       -0.42997253739591
O            0.29398770659117        2.57711086486946       -0.70906380563464
N           -1.34149287771371        0.99276860744563       -0.20447024997970
C           -2.20896394421641        2.12858858145924        0.03685582411195
C           -1.87009748673715       -0.24478679950706       -0.09611940548021
O           -3.04447564385877       -0.52071381682323        0.04175331120186
N           -0.92614822398731       -1.27356707812284       -0.13203737629857
C           -1.39871535002676       -2.63496379802968       -0.03398977413522
H            3.98485397966816        0.90719544577488        1.08261686676761
H            3.90194368274585        1.57151820822740       -0.56427421290418
H            2.69553018395514        2.05620822185514        0.62672346214851
H            3.45137756480873       -1.90016690459038        0.03459504346274
H           -1.53250470384629        2.96823048269818       -0.08671669016868
H           -3.04234555166704        2.17320170128053       -0.68378724195298
H           -2.62069493618353        2.10964350372061        1.06187022142647
H           -1.21044156196470       -3.04970413524956        0.96598342665448
H           -0.95392846624630       -3.26848360831244       -0.81143581988180
H           -2.48021138316417       -2.56003691592241       -0.19080200130749
H            1.10846604383312       -2.85898628267511        0.11233792725071
25
 energy: 7.883775453423 xtb: 6.6.1 (8d0f1dd)
C            3.28176142398247        1.17837043686468        0.30192790871803
N            2.39259102004705        0.08922101208590       -0.14422376601059
C            2.56521234727813       -1.28770625826744        0.02629064071353
N            1.34522517565007       -1.87432558358012        0.02228096262514
C            0.38421747935868       -0.97082745848125       -0.15448132439152
C            0.97671623455949        0.29613099882103       -0.27875288572206
C            0.14118045859525        1.40227731179428       -0.49987525950794
O            0.28528599764127        2.56653865305280       -0.83167782232843
N           -1.34361093616249        0.99592892906470       -0.22920386318004
C           -2.20353945930948        2.13073489230073        0.05990715834114
C           -1.87158493282097       -0.24042246647804       -0.10202554358160
O           -3.04304453101291       -0.51563952804669        0.06571827414767
N           -0.92753421471153       -1.26954196868873       -0.15424959685989
C           -1.39140505521603       -2.63272883659190       -0.03534878337014
H            3.97720511180099        0.86665619097851        1.09774956204920
H            3.89565797434087        1.58999054558636       -0.52399345245107
H            2.69308811516725        2.03483186560068        0.68325800465248
H            3.44653902535716       -1.89356643418424        0.03198192929406
H           -1.54026897804986        2.97686272421969       -0.08838898582873
H           -3.07185531916882        2.17497835921484       -0.62330267729057
H           -2.57193109479989        2.09957132981911        1.10441039899429
H           -1.22006155186417       -3.02266370784143        0.97949210970225
H           -0.92022431112787       -3.28029909737865       -0.78786232934988
H           -2.47036427550321       -2.57460232200235       -0.21776229481520
H            1.10295896390413       -2.85074098569019        0.12516553159714
25