25
 energy: -50.541772704311 gnorm: 11.518801815174 xtb: 6.6.1 (8d0f1dd)
C            3.21786164340000        1.13591514650000        0.01837059260000
N            2.27034809790000        0.05199982890000        0.00038279530000
C            2.54167221030000       -1.23971668410000       -0.00834188300000
N            1.39367826450000       -1.95088267900000       -0.00850347120000
C            0.35269634020000       -1.06748964300000        0.00059917290000
C            0.90759959010000        0.20069750900000        0.00663590170000
C            0.07590235260000        1.39864294500000       -0.00284827040000
O            0.48715076820000        2.53168346660000       -0.01725767220000
N           -1.27221500230000        1.06666939660000        0.00165480230000
C           -2.23229981500000        2.16656245330000       -0.00245172030000
C           -1.84872931540000       -0.19179276200000        0.00496135950000
O           -3.03273030250000       -0.36103538130000        0.00858583760000
N           -0.96599111670000       -1.30060631840000        0.00174701630000
C           -1.52030655580000       -2.64076660390000       -0.00239033190000
H            3.71480285180000        1.18589984860000        0.98803183970000
H            3.97079415090000        0.99383197990000       -0.75543416370000
H            2.68321036910000        2.07051068580000       -0.15067179540000
H            3.52469367910000       -1.66989040330000       -0.01523639120000
H           -1.67672429040000        3.10039111610000        0.00486339690000
H           -2.85755792270000        2.10547813320000       -0.89185337000000
H           -2.87119733260000        2.09858159720000        0.87661144540000
H           -1.20589108080000       -3.18768007210000        0.88663215920000
H           -1.21982032550000       -3.17678505510000       -0.90288069810000
H           -2.60531402170000       -2.54255916880000        0.00649952960000
H            1.32879827740000       -2.95942079410000       -0.01653446370000
25
 energy: -65.878623274007 gnorm: 19.237233296953 xtb: 6.6.1 (8d0f1dd)
C            3.21789499042410        1.13586752346474        0.01837289335802
N            2.27038576042181        0.05201708723312        0.00037909019020
C            2.54143905035957       -1.23984828434238       -0.00834151300534
N            1.38911782478502       -1.94538167370823       -0.00846164162530
C            0.19326598408688       -0.73769371795031        0.00087224746525
C            0.90744469215743        0.20621610600879        0.00665955984088
C            0.07609930842149        1.39901731761668       -0.00284500678840
O            0.48714490212463        2.53184156609134       -0.01725867659966
N           -1.27251827200766        1.06627430253952        0.00165252364131
C           -2.23319820435369        2.16313475123888       -0.00247015375060
C           -1.84932817538249       -0.19187983895091        0.00496153267284
O           -3.03288338855430       -0.36105119015281        0.00858673811916
N           -0.96880353824496       -1.29732287144201        0.00176033755065
C           -1.51988243414392       -2.64075209849079       -0.00239077167035
H            3.71481193677576        1.18588636012304        0.98803432508037
H            3.97079969862330        0.99381755419984       -0.75543691509100
H            2.68322498169995        2.07049601350879       -0.15067154179293
H            3.52463469245548       -1.66995300398456       -0.01523711953744
H           -1.50791263599319        2.75911179241121        0.00452340339786
H           -2.85749777161630        2.10567138978512       -0.89194581444987
H           -2.87113825721682        2.09877485153663        0.87670896455370
H           -1.20588089526106       -3.18766848371945        0.88663561823969
H           -1.21981079515940       -3.17677292307951       -0.90288597187598
H           -2.60530012419254       -2.54257750462556        0.00649865680973
H            1.32832218389090       -2.95898648371118       -0.01652914683277
25
 energy: -89.056875046457 gnorm: 27.207148555709 xtb: 6.6.1 (8d0f1dd)
C            3.21790880420228        1.13589612356343        0.01838713308544
N            2.27081780634679        0.05199536961854        0.00036649654961
C            2.54042787673228       -1.24021377629769       -0.00833970609234
N            1.38598217784795       -1.94068347359644       -0.00843000855201
C            0.03015402274044       -0.40951240716696        0.00114349343378
C            0.90995624936756        0.21481545068799        0.00670271447798
C            0.07611987270761        1.40001382495149       -0.00284325642421
O            0.48706751847528        2.53200286239592       -0.01726038733527
N           -1.27288335874653        1.06528355957908        0.00164879199133
C           -2.23570431611317        2.15863232232046       -0.00250302588946
C           -1.85021397838646       -0.19202778338004        0.00496228444130
O           -3.03310384806850       -0.36098007213559        0.00858780201664
N           -0.97165843772899       -1.29454967948830        0.00177228383354
C           -1.51935071550988       -2.64071866090881       -0.00239189279470
H            3.71481027484145        1.18592017485555        0.98804137243611
H            3.97078881281885        0.99385124877311       -0.75544503398497
H            2.68323182784744        2.07051076180552       -0.15067459245651
H            3.52462901333519       -1.66994512634209       -0.01523754192382
H           -1.33714138712355        2.41860727905919        0.00419576329833
H           -2.85745554153826        2.10584985520076       -0.89201921087768
H           -2.87109572754479        2.09895428146613        0.87678740041336
H           -1.20582519359972       -3.18765327786108        0.88663208626275
H           -1.21975573246242       -3.17675734064846       -0.90288411631141
H           -2.60525239140711       -2.54255557680345        0.00649815367918
H            1.32797788506624       -2.95849739804825       -0.01652538537699
25
 energy: -120.267296105806 gnorm: 35.236504460348 xtb: 6.6.1 (8d0f1dd)
C            3.21791754283593        1.13598229766178        0.01840859802884
N            2.27114188639708        0.05227296944412        0.00035198041703
C            2.53912730662623       -1.24109124990204       -0.00833976222236
N            1.38456870761157       -1.93760401253041       -0.00841252432710
C           -0.13805142273421       -0.08177340790185        0.00142138286751
C            0.91709410591861        0.22336465092835        0.00676687050433
C            0.07594563595086        1.40141107770739       -0.00284367814858
O            0.48702593879040        2.53221547149264       -0.01726434042367
N           -1.27327854289745        1.06393021302811        0.00164588458818
C           -2.23806853926617        2.15592898515748       -0.00252785309408
C           -1.85122346480078       -0.19249551315630        0.00496403563417
O           -3.03337213987155       -0.36086988880840        0.00858922006883
N           -0.97329924758730       -1.29194633206326        0.00178114934534
C           -1.51886038600713       -2.64073970234880       -0.00239375278055
H            3.71479847078420        1.18599833018413        0.98805231199982
H            3.97076436722924        0.99393165548783       -0.75545763870755
H            2.68323128959848        2.07055793372951       -0.15068018502162
H            3.52467696152299       -1.66985422804602       -0.01523854733540
H           -1.16857122620451        2.07898361885042        0.00385511024077
H           -2.85743216621942        2.10598896031252       -0.89208381912162
H           -2.87107102824881        2.09909422998530        0.87685824759653
H           -1.20572429107389       -3.18764686868456        0.88662492256453
H           -1.21965568011685       -3.17675052366196       -0.90287967298656
H           -2.60517951295139       -2.54255518881424        0.00649748032950
H            1.32792694881390       -2.95809493645173       -0.01652380211627
25
 energy: -159.299687205185 gnorm: 42.730586930911 xtb: 6.6.1 (8d0f1dd)
C            3.21798051953330        1.13598365080126        0.01842922927980
N            2.27104137588046        0.05263166782051        0.00033995757887
C            2.53799356964252       -1.24232447120971       -0.00834285855251
N            1.38362557462942       -1.93530950544654       -0.00840049290410
C           -0.30403690433090        0.25002626384163        0.00173707497724
C            0.92367229646006        0.22746646734750        0.00681605008643
C            0.07663052437437        1.40317314147577       -0.00284702743370
O            0.48703876424718        2.53263381592798       -0.01727131334326
N           -1.27363409991589        1.06210027557026        0.00164851356413
C           -2.23883442120155        2.15484376328725       -0.00253814723578
C           -1.85253991587227       -0.19356247266053        0.00496706026196
O           -3.03371663113430       -0.36058419252859        0.00859219207445
N           -0.97447098278095       -1.28933383484765        0.00178605238869
C           -1.51859962948109       -2.64070920231722       -0.00239667597551
H            3.71483525972733        1.18593571562338        0.98806083476818
H            3.97077946467027        0.99386129656533       -0.75546851842891
H            2.68332116227564        2.07051057647764       -0.15068463757372
H            3.52469501834679       -1.66988163569619       -0.01524184644049
H           -1.00435079581930        1.73990920680144        0.00349137605554
H           -2.85731982887261        2.10616485711838       -0.89213838425755
H           -2.87095687538419        2.09926937431344        0.87692230661879
H           -1.20573178430577       -3.18758741751209        0.88661123556111
H           -1.21966421185535       -3.17668953748879       -0.90287158613491
H           -2.60520743459408       -2.54247849470432        0.00649599080069
H            1.32788149986091       -2.95781076696015       -0.01652476783544
25
 energy: -205.352753636129 gnorm: 49.366660029211 xtb: 6.6.1 (8d0f1dd)
C            3.21806223629183        1.13590993732829        0.01844483014016
N            2.27077405330343        0.05287170129152        0.00033009993131
C            2.53710513062101       -1.24350613517726       -0.00834769381957
N            1.38273420337322       -1.93329238445541       -0.00839193062222
C           -0.46510147319528        0.58559924041355        0.00210810078030
C            0.92617063893781        0.22911534100896        0.00684804176367
C            0.08019153486099        1.40772889504637       -0.00287679373871
O            0.48707975600085        2.53310989309643       -0.01727693749341
N           -1.27899400945623        1.05546964763264        0.00163984150683
C           -2.23939663176666        2.15415885702594       -0.00254381232787
C           -1.85380228444006       -0.19539580815248        0.00497077745347
O           -3.03417525026226       -0.36018850022274        0.00859620486807
N           -0.97584449895939       -1.28739085955194        0.00178777225555
C           -1.51859912726303       -2.64058117428919       -0.00239995224793
H            3.71490160778518        1.18577592782343        0.98806685772662
H            3.97082068623859        0.99368897423105       -0.75547761176805
H            2.68346456419713        2.07040448384205       -0.15068634152382
H            3.52467286253227       -1.67000631583287       -0.01524686741897
H           -0.83851980833816        1.40296564212344        0.00313347844755
H           -2.85716044442466        2.10637290360626       -0.89219108675420
H           -2.87079613891763        2.09947547070956        0.87698847374847
H           -1.20581726223359       -3.18748655138294        0.88659217552757
H           -1.21975105262063       -3.17658588077680       -0.90286149967121
H           -2.60531764798233       -2.54239498344752        0.00649338852614
H            1.32772986981762       -2.95757978029032       -0.01652789738977
25
 energy: -246.797286182994 gnorm: 26.160776633572 xtb: 6.6.1 (8d0f1dd)
C            3.21805874750892        1.13598450061349        0.01845643158443
N            2.27064326235135        0.05309581974690        0.00031950257327
C            2.53642433577477       -1.24431541391864       -0.00835540059353
N            1.38202412549307       -1.93145729327413       -0.00838922958861
C           -0.61715428975996        0.91726150965011        0.00257557275841
C            0.92632854490251        0.23049537647927        0.00687196353727
C            0.09233152760175        1.41892701305643       -0.00296513812422
O            0.48701262379986        2.53387260961262       -0.01727791825203
N           -1.31377657965221        1.04652842545743        0.00158465286782
C           -2.23970395140650        2.15312160996646       -0.00253993950903
C           -1.85500846264273       -0.19788462614671        0.00497441475169
O           -3.03477545921109       -0.36005767455174        0.00860183229811
N           -0.97719500325965       -1.28613910902809        0.00178722223931
C           -1.51853533062490       -2.64044085351919       -0.00240475856776
H            3.71489579263432        1.18580878116020        0.98807277346840
H            3.97080214417961        0.99372599390543       -0.75548670422403
H            2.68348043241488        2.07044276058291       -0.15068394093190
H            3.52472684637915       -1.66995374804747       -0.01525590181730
H           -0.65921270812648        1.06709491266099        0.00279978605238
H           -2.85713585871800        2.10642440962678       -0.89223357147369
H           -2.87077046439249        2.09952226253284        0.87705465698398
H           -1.20574151389964       -3.18746323198509        0.88657059760449
H           -1.21967783249273       -3.17655735690619       -0.90285741131598
H           -2.60531392910119       -2.54249617356692        0.00648837094790
H            1.32770451434738       -2.95730196250768       -0.01653624536938
25
 energy: -242.565758537131 gnorm: 43.486972509832 xtb: 6.6.1 (8d0f1dd)
C            3.21677564923856        1.13931971736941        0.01849028554578
N            2.27008817460195        0.05653343971162        0.00029420078802
C            2.53599523535143       -1.24500037419881       -0.00837683227378
N            1.39836752368410       -1.94453778545547       -0.00853208246539
C           -0.55365068070889        0.79845153633823        0.00325496684617
C            0.92733809277007        0.21631896072398        0.00686977442303
C            0.17689146759146        1.47168143312366       -0.00351534478022
O            0.48589661819715        2.53979574487752       -0.01733921204083
N           -1.54988147164790        1.05013450386888        0.00129520511028
C           -2.24025908171345        2.16005613016349       -0.00245883466282
C           -1.85715612974557       -0.20987242253219        0.00497343721101
O           -3.03713756801042       -0.36297355227383        0.00861725345027
N           -0.97055181312885       -1.29422414094296        0.00174076478101
C           -1.51740532775199       -2.64126808321139       -0.00241453135185
H            3.71364521909555        1.18940208830059        0.98810146371031
H            3.96970530070874        0.99757749738339       -0.75551330941031
H            2.68143636453207        2.07305186315767       -0.15067416880560
H            3.52663380539726       -1.66631343971355       -0.01527428046687
H           -0.59391967289183        1.15936363400418        0.00320180982997
H           -2.85943052611308        2.10308341959591       -0.89209599487556
H           -2.87306133387269        2.09616010919055        0.87695773923819
H           -1.20252771163622       -3.18867029270115        0.88647887899468
H           -1.21647600465288       -3.17776696963667       -0.90280966119771
H           -2.60303627946882       -2.54541229135687        0.00647370846987
H            1.33215166427425       -2.95665218418621       -0.01657361816766
25
 energy: -248.436857409115 gnorm: 26.529539193572 xtb: 6.6.1 (8d0f1dd)
C            3.21965401338701        1.13204298411867        0.01850442117616
N            2.26993764261094        0.05225870089533        0.00028742634895
C            2.53184956209122       -1.25363878059355       -0.00833988742672
N            1.40655953852624       -1.96007032652698       -0.00858964068794
C           -0.44164996548136        0.88650053574301        0.00349617484473
C            0.92868728729543        0.20200790683337        0.00685874552545
C            0.25402324104674        1.51327051223490       -0.00402648506687
O            0.49456902225930        2.54660473140283       -0.01750754836138
N           -1.70643267225110        1.06537843940285        0.00106408513561
C           -2.23400489458288        2.17428245282142       -0.00248031932687
C           -1.85938780258595       -0.21388087125686        0.00495997471931
O           -3.04071010674053       -0.35589561753564        0.00861729575497
N           -0.96873735046997       -1.29783384222690        0.00172993968974
C           -1.52477022784792       -2.63648084716316       -0.00235629743443
H            3.71673262696511        1.18074529201118        0.98811267132364
H            3.97230551339406        0.98824821736073       -0.75553654910320
H            2.68676274706719        2.06690940978823       -0.15071197477729
H            3.52309490758370       -1.67433354509382       -0.01521408905906
H           -0.62943555434590        1.04740101206218        0.00378032818708
H           -2.85429685080135        2.11020179095573       -0.89211796229635
H           -2.86796648211175        2.10336113565621        0.87683150283510
H           -1.20993821698150       -3.18532061493308        0.88649303749598
H           -1.22384698189557       -3.17442908152445       -0.90269107593842
H           -2.60915693275456       -2.53894271636061        0.00651563200887
H            1.32658945072341       -2.96014833647160       -0.01650778766706
25
 energy: -245.733369071708 gnorm: 38.912623066085 xtb: 6.6.1 (8d0f1dd)
C            3.21560760115564        1.14226918689486        0.01853299334568
N            2.26873068065991        0.05954857540552        0.00027597913708
C            2.53414645875372       -1.24793416971655       -0.00836529764801
N            1.41320125042839       -1.95385843932715       -0.00861777188792
C           -0.67894866402847        1.00270608852484        0.00409128246526
C            0.92814148829825        0.20597648570921        0.00689416185111
C            0.29785858685956        1.54246234023182       -0.00435758384811
O            0.48988676198081        2.55971161288042       -0.01762667626232
N           -1.75801834564473        1.06900988970581        0.00102959009338
C           -2.24418891772171        2.16786574166304       -0.00245567199445
C           -1.86087975511065       -0.22587955285712        0.00495948718776
O           -3.04317068458229       -0.36805475365743        0.00863349484399
N           -0.96658495932642       -1.29969510250536        0.00171560528916
C           -1.51628482624028       -2.64118340364366       -0.00238902019302
H            3.71256979419352        1.19249593752473        0.98814459384036
H            3.96874317344265        1.00085715968243       -0.75554354207646
H            2.67978452480018        2.07535178416221       -0.15068488846336
H            3.52844409477595       -1.66312506292200       -0.01524482755609
H           -0.39323439877142        0.87656229568157        0.00374967509959
H           -2.86168190907164        2.10127355870623       -0.89239063453565
H           -2.87534566529435        2.09436697486950        0.87718845069951
H           -1.19965588759536       -3.18963453395881        0.88642048777457
H           -1.21360393407929       -3.17876136479646       -0.90271447633734
H           -2.60123559421480       -2.54802459173938        0.00648084688905
H            1.33615064043281       -2.95606811491825       -0.01655463981376
25
 energy: -192.437111517949 gnorm: 1958.074083869030 xtb: 6.6.1 (8d0f1dd)
C            3.21799227125483        1.13620527903773        0.01853950263960
N            2.26853349206906        0.05531979858929        0.00026419649568
C            2.53085610337241       -1.25451320650482       -0.00837014653764
N            1.41133895595349       -1.95634161886524       -0.00862715634127
C           -0.55681159829160        0.93478652891905        0.00428351890628
C            0.92951561540691        0.20443465187583        0.00690490865962
C            0.32232761614248        1.55221185791429       -0.00447038886417
O            0.49879584024017        2.57209364458555       -0.01780502610280
N           -1.75813415501397        1.06916760725943        0.00100798467092
C           -2.24304779521974        2.17638108776939       -0.00246840637757
C           -1.86191622775039       -0.22669015226248        0.00495948259594
O           -3.04670834562464       -0.36349483543779        0.00865294243914
N           -0.96969994650359       -1.29706247805412        0.00171607946604
C           -1.52140684721220       -2.63739390647650       -0.00238095395041
H            3.71510992466557        1.18536425206411        0.98815382925995
H            3.97087663933103        0.99320916016718       -0.75556326162059
H            2.68417250444520        2.07031239036849       -0.15069571967816
H            3.52545583648254       -1.66981411048154       -0.01524843363614
H           -0.52690342301665        0.92905334947537        0.00386914623491
H           -2.85764696401760        2.10804054614206       -0.89268674621811
H           -2.87134235029821        2.10117113621060        0.87749271053688
H           -1.20573183028520       -3.18692440818946        0.88639451469452
H           -1.21966075022395       -3.17602617182140       -0.90268136680383
H           -2.60624386083432       -2.54268824048181        0.00648643657598
H            1.33071080902837       -2.95856362020321       -0.01655602914477
