25
 energy: -43.131114260531 gnorm: 0.150532890458 xtb: 6.6.1 (8d0f1dd)
C            3.26184323100321        1.20867818384516        0.09250597730162
N            2.32170691585464        0.10988435171076        0.03466420581220
C            2.62476312231209       -1.24418060540581        0.03066651560770
N            1.46146391417386       -1.92338723606076        0.01458524934360
C            0.44494952496994       -1.06648574076054       -0.01408434100944
C            0.95728783589267        0.23712630001033       -0.00331944304756
C            0.12016061331206        1.36878833789831       -0.01314889248389
O            0.46693528317877        2.56267149770601       -0.01625973450071
N           -1.26754536554759        1.02517343875027       -0.03302479493093
C           -2.21645397528522        2.12636530659597       -0.04980016619358
C           -1.81030096045009       -0.24267029357891       -0.05129584755497
O           -3.01862944376628       -0.42923899868697       -0.07081183816362
N           -0.90607017097494       -1.36115622037449       -0.04374427214268
C           -1.62924652663819       -2.61452447325061       -0.06044151118183
H            3.76118998353175        1.26134464253235        1.06605059688680
H            4.02881886670085        1.15218458061325       -0.69016705762601
H            2.69175865689469        2.15440457195312       -0.02026344929051
H            3.60401166826245       -1.69017082542732        0.04646480869033
H           -1.64760471491620        3.06334967734714       -0.02540998498605
H           -2.81273998135159        2.06418929765297       -0.95321693657485
H           -2.85604556815158        2.04814259688904        0.82191114103759
H           -1.35025047080721       -3.21660191239873        0.83474221130243
H           -1.32346322339967       -3.20338941569051       -0.95725672697777
H           -2.61488018266291       -2.45386129873748       -0.07671864089489
H            1.33620109492557       -2.92413222654721        0.01716983549005
25
 energy: -43.142270855541 gnorm: 0.043620444824 xtb: 6.6.1 (8d0f1dd)
C            3.25400737295840        1.20613372852085        0.09639269560248
N            2.32564936565254        0.11064430046495        0.03297980848554
C            2.62736129995446       -1.24268945260615        0.03322264396455
N            1.44818251971270       -1.92912708082233        0.01206547787399
C            0.42361054581649       -1.06438876021813       -0.01349180390021
C            0.94446123603502        0.23270347746809       -0.00292666391830
C            0.11983367449317        1.37235002072338       -0.01508946370201
O            0.47183956190489        2.56121782768752       -0.01567110151853
N           -1.26590255673381        1.02715640091459       -0.03398904288669
C           -2.21751020926650        2.12411266202991       -0.04916788281807
C           -1.80935919617903       -0.22320900983239       -0.05046284374820
O           -3.01084052273204       -0.40523955404359       -0.07074957821424
N           -0.92095696778120       -1.33682924858279       -0.04286137734378
C           -1.57964196094755       -2.62749594612636       -0.06038396124343
H            3.75890521393097        1.24493106998054        1.06711253264341
H            4.01079426847497        1.13808923141653       -0.68954416095692
H            2.68317828709821        2.13449203063052       -0.02644561619780
H            3.60082313838817       -1.67986671013542        0.04978483320468
H           -1.64287715298096        3.05068653126220       -0.02633267520490
H           -2.82054067132697        2.07089367611401       -0.95297209278676
H           -2.86481139412080        2.05490454321516        0.82231912023851
H           -1.32094751827715       -3.21806628508909        0.83282044203679
H           -1.29433389496865       -3.20588260761030       -0.95419784865245
H           -2.62879924754727       -2.45324724639149       -0.07640047706679
H            1.33573493550300       -2.92977006238486        0.01378594002218
25
 energy: -43.143474722412 gnorm: 0.008865736931 xtb: 6.6.1 (8d0f1dd)
C            3.25329703026738        1.21025989033403        0.09624742561915
N            2.33119966549365        0.11199819007271        0.02860755840560
C            2.63119308971857       -1.24227582448731        0.03346888831869
N            1.44497858001027       -1.93472020452591        0.01237915782670
C            0.41624317631046       -1.06835909068438       -0.01280734269715
C            0.93964970455632        0.22604474564687       -0.00215979334596
C            0.12008991712222        1.37033827957755       -0.01521209051183
O            0.46981051742797        2.55719865715730       -0.01598541410033
N           -1.26574463503493        1.02054269707025       -0.03472690234988
C           -2.21431913248553        2.11966886270995       -0.04918916841540
C           -1.80969629653675       -0.22281971207811       -0.05080217627832
O           -3.00966910636032       -0.41287629946511       -0.07101298035356
N           -0.92748962299962       -1.32790964270770       -0.04211162447107
C           -1.56521069879592       -2.62824090494877       -0.06025673292304
H            3.76039949420680        1.24776909075647        1.06567550516094
H            4.01372155650541        1.14399542939548       -0.68682061818472
H            2.68793114241293        2.13565378204777       -0.02404971144845
H            3.60153636608889       -1.67822515333729        0.04727750122068
H           -1.64349699283945        3.04710587890143       -0.02616479841308
H           -2.82034170788765        2.06722197564484       -0.95270494112816
H           -2.86475152330139        2.05049402521101        0.82144688614548
H           -1.33138806175959       -3.20974283511226        0.83518577722359
H           -1.30375277676110       -3.19677693958107       -0.95642586840467
H           -2.63289289373243       -2.43843859248377       -0.07620926864478
H            1.34656333543487       -2.93540276852862        0.01614763566262
25
 energy: -43.143534551779 gnorm: 0.004034737692 xtb: 6.6.1 (8d0f1dd)
C            3.25226611358560        1.20893356621804        0.09640788085203
N            2.33089213709976        0.11203023334363        0.02758632263887
C            2.62897819485290       -1.24269001240731        0.03529231679384
N            1.44123180201137       -1.93477044834216        0.01195313970093
C            0.41394687778165       -1.06757967288538       -0.01298674034955
C            0.93767840700811        0.22587882841341       -0.00154025163754
C            0.12092615995272        1.37281298840846       -0.01545754689892
O            0.46993035695220        2.55872130803153       -0.01546402800595
N           -1.26640002445279        1.02226750493265       -0.03478379992118
C           -2.21402093627686        2.12298109731223       -0.04900001413635
C           -1.81093371729034       -0.22100757328057       -0.05062889140751
O           -3.01192588472236       -0.41186882721294       -0.07082831482041
N           -0.93008024434060       -1.32554336376330       -0.04232014402170
C           -1.55949474141231       -2.63110312495195       -0.06042309843528
H            3.75926723007509        1.24606431842017        1.06658750667893
H            4.01286594261722        1.14012703558500       -0.68745284017033
H            2.68597730834418        2.13390592323091       -0.02580548798983
H            3.59834081873056       -1.68155353473130        0.04802864092596
H           -1.64342885245009        3.05065114274272       -0.02626665656938
H           -2.82077547108762        2.07105857660265       -0.95229180099107
H           -2.86472326058797        2.05459531219594        0.82169664814917
H           -1.32335035857197       -3.21082257068248        0.83346548870538
H           -1.29595091990554       -3.19810047628370       -0.95484170182961
H           -2.63091092787295       -2.44714499201615       -0.07630302953893
H            1.34755411702112       -2.93533970229475        0.01517330619148
25
 energy: -43.143549336871 gnorm: 0.002062038977 xtb: 6.6.1 (8d0f1dd)
C            3.25241334662167        1.20911475839633        0.09674606334654
N            2.33149767228340        0.11225084660013        0.02692512612438
C            2.62939252033607       -1.24240491350621        0.03572137243160
N            1.44153488552841       -1.93473181262444        0.01193973464338
C            0.41482460353135       -1.06783081604908       -0.01296444833680
C            0.93803935767501        0.22557124506143       -0.00124522856352
C            0.12210388177897        1.37307644319491       -0.01556199922021
O            0.47021311836823        2.55874181647662       -0.01561029680232
N           -1.26592571823456        1.02202855036261       -0.03486964708062
C           -2.21449024914855        2.12187275423277       -0.04916153823948
C           -1.81028018655111       -0.22134314114121       -0.05065736293855
O           -3.01152395271162       -0.41191616761769       -0.07086292703256
N           -0.92984597604304       -1.32567083643156       -0.04223153220353
C           -1.56127000795768       -2.63001367646619       -0.06026115024438
H            3.75973294733220        1.24619311325226        1.06689916803652
H            4.01296164996443        1.14129539089026       -0.68744663883776
H            2.68585953850655        2.13434130050535       -0.02512815615810
H            3.59891025934096       -1.68176285803024        0.04687808092176
H           -1.64385081338172        3.04944455290453       -0.02632548169819
H           -2.82091232555633        2.06936369274570       -0.95262191725807
H           -2.86506109503854        2.05286287832717        0.82158042102873
H           -1.32580524073071       -3.21010831972828        0.83395981274953
H           -1.29834956877143       -3.19746908095684       -0.95499606122327
H           -2.63266990804018       -2.44494962925560       -0.07619807606255
H            1.35036138795931       -2.93545255455736        0.01528958653052
25
 energy: -43.143552884011 gnorm: 0.000622309005 xtb: 6.6.1 (8d0f1dd)
C            3.25240799090862        1.20903017505574        0.09663908012308
N            2.33144551081856        0.11233372849198        0.02616510674863
C            2.62907104852046       -1.24232601525574        0.03673391977454
N            1.44108173366343       -1.93468504188220        0.01211867049605
C            0.41507007253083       -1.06789993671764       -0.01298633415948
C            0.93780702565816        0.22545340983430       -0.00109989039949
C            0.12248981724899        1.37317204020988       -0.01570049281842
O            0.46958514680266        2.55878698409275       -0.01568859489780
N           -1.26613625726811        1.02179865738089       -0.03487760527815
C           -2.21451980534064        2.12179048390337       -0.04907070695451
C           -1.81017570722322       -0.22184729019174       -0.05073048942238
O           -3.01147902640853       -0.41208647237409       -0.07090743752292
N           -0.92982971163121       -1.32598547648421       -0.04224720019946
C           -1.56190470677181       -2.62983181539247       -0.06035078626197
H            3.75970524656517        1.24649574418038        1.06671309697548
H            4.01336560475922        1.14171889537373       -0.68723783807994
H            2.68657555814710        2.13481821441938       -0.02522076029906
H            3.59865483221993       -1.68190235657334        0.04637778988608
H           -1.64345595676318        3.04913532699133       -0.02616127820044
H           -2.82081060635287        2.06950912596925       -0.95253208917485
H           -2.86489973250817        2.05287303930789        0.82172499300546
H           -1.32632107404350       -3.21025307386639        0.83405824707375
H           -1.29881292907774       -3.19742712160074       -0.95541086506758
H           -2.63284482530257       -2.44459596357184       -0.07633630434087
H            1.35179087790948       -2.93557172471510        0.01582467290727
25
 energy: -43.090316019423 gnorm: 0.314198511463 xtb: 6.6.1 (8d0f1dd)
C            3.28048762336562        1.25385997400055        0.10145607330637
N            2.35616116376543        0.13223112715799        0.02408581497503
C            2.67395040273579       -1.26563483356007        0.03181976357507
N            1.51332994803034       -1.92533246000279        0.02450007309760
C            0.49135755037644       -1.09794394758178       -0.02163351247766
C            0.99794927114795        0.22827478421202       -0.02384457032341
C            0.14246559458136        1.33394018861931       -0.03234061987946
O            0.41686148730747        2.55439551335835       -0.03793996109204
N           -1.27766580300244        0.98521684539877       -0.03849481124371
C           -2.20665909858374        2.09920931607698       -0.04988918604952
C           -1.79193941966107       -0.28552749689294       -0.05668972834718
O           -3.00345846205680       -0.49218878933877       -0.07116302785541
N           -0.86572305034915       -1.42368728110065       -0.04809521079951
C           -1.78981068209937       -2.62816276975007       -0.06041581949290
H            3.81372644081243        1.30342764884931        1.05812701374478
H            4.03366211405381        1.27233427404828       -0.70905788714021
H            2.67292567150829        2.19879449698969        0.05903234765448
H            3.64102172171304       -1.74296909472704        0.05580492694136
H           -1.62254830706115        3.03470206832453       -0.02556086633590
H           -2.79491799284893        2.03571871361450       -0.94970107025067
H           -2.82623808346019        2.02339474651836        0.82794773555293
H           -1.52984374555695       -3.23782067529293        0.84002597258630
H           -1.50104810984428       -3.23390633280688       -0.95801748349546
H           -2.67053564670641       -2.34873519132627       -0.07933540171611
H            1.39415265843634       -2.92577566021215        0.05330249263378
25
 energy: -43.129388758927 gnorm: 0.075362133770 xtb: 6.6.1 (8d0f1dd)
C            3.26690966331865        1.24666532202708        0.10477090873746
N            2.35877887333066        0.12345091624405        0.02287578460805
C            2.67250343585014       -1.25155593466666        0.03517787022532
N            1.49591681208961       -1.93126577603263        0.02209474594341
C            0.45667980571259       -1.09449093355714       -0.02002307698386
C            0.97681722540306        0.21923803780512       -0.02179862731889
C            0.13991186244095        1.34126194083905       -0.03247824621088
O            0.44012744970845        2.54600776158200       -0.03663870230858
N           -1.26408931547032        0.98893346113125       -0.03954611075224
C           -2.20445486267886        2.09407385401831       -0.04910464068291
C           -1.79055403178253       -0.25886811152032       -0.05519162284612
O           -2.99401064063183       -0.44781711643529       -0.07142052418967
N           -0.89453350357166       -1.38896598658968       -0.04708755845195
C           -1.70098469775009       -2.64890742502300       -0.06014791435667
H            3.80652065738170        1.27979675823195        1.05760255851211
H            4.00876632224201        1.25495747151161       -0.70464672747836
H            2.66779036609467        2.17223943504488        0.04720100620910
H            3.63651319535071       -1.71437299121371        0.05821473186275
H           -1.62161315281649        3.01958658852247       -0.02755340868116
H           -2.80477795854138        2.04150337077131       -0.95106834087175
H           -2.83729894270802        2.02755067874893        0.82965658703741
H           -1.49340548406001       -3.24914783663889        0.83752574485411
H           -1.46532015801908       -3.24628159110297       -0.95424903942550
H           -2.70283717040287       -2.34267375741806       -0.07967369409624
H            1.39430749611377       -2.93310297170338        0.04943135423359
25
 energy: -43.133412363918 gnorm: 0.021258300441 xtb: 6.6.1 (8d0f1dd)
C            3.25736203264215        1.24166266988630        0.10476302554725
N            2.35814124135446        0.11608822566785        0.02013578882388
C            2.66778145799284       -1.24502577790680        0.03734105563787
N            1.48625079268889       -1.93954997922403        0.02101413578046
C            0.44026707202070       -1.09763150186308       -0.01890552278387
C            0.96272091607061        0.20933969527263       -0.01968474516599
C            0.13510058729957        1.34343402850818       -0.03247922180065
O            0.44858710907948        2.54023288379952       -0.03648315831196
N           -1.25824771617488        0.98554679873030       -0.04114386312109
C           -2.20096520421828        2.08967788160009       -0.04899829437971
C           -1.79219181251397       -0.25451437543706       -0.05535542561609
O           -2.99422664138748       -0.44385271254437       -0.07141266291075
N           -0.90899841965361       -1.37156976870961       -0.04641866364737
C           -1.65722849975576       -2.63997070681379       -0.05959543854582
H            3.80002391826321        1.26705199899433        1.05627893218183
H            3.99812212066795        1.24492600768539       -0.70323609271332
H            2.66291724301592        2.15878921262419        0.04614292118183
H            3.63074775875705       -1.70239043024896        0.05798355935280
H           -1.62217051527961        3.01383697840499       -0.02834426253021
H           -2.80899178961898        2.04075052607328       -0.94987661922754
H           -2.84138793509994        2.02529521808531        0.82807581756293
H           -1.47976970879054       -3.22909113577652        0.83993817157291
H           -1.44972782627150       -3.22551824174978       -0.95516142608764
H           -2.68734819055954       -2.33783273069366       -0.07865372012031
H            1.40089525607505       -2.94186959978840        0.04799876688909
25
 energy: -43.133709286684 gnorm: 0.006838014034 xtb: 6.6.1 (8d0f1dd)
C            3.25825249281981        1.24399696824863        0.10506811389342
N            2.36094685900999        0.11658831375967        0.01854490906920
C            2.66756565574158       -1.24192498030022        0.03882202278344
N            1.48455546393095       -1.94160167716872        0.02114644747491
C            0.43776252784904       -1.09807465110059       -0.01891871598294
C            0.95990405688832        0.20715294171489       -0.01895239164301
C            0.13396275296142        1.34565627322665       -0.03302270725484
O            0.45075525786645        2.54014992490657       -0.03614224091184
N           -1.25564556300016        0.98550413583027       -0.04155816364007
C           -2.19881692481766        2.09057779904380       -0.04866966456512
C           -1.79204608177275       -0.25512724776843       -0.05502498621558
O           -2.99524315057328       -0.44325555540722       -0.07122763247891
N           -0.91400748408051       -1.36987558420646       -0.04676166109248
C           -1.64966328637253       -2.63848632339309       -0.06013638406272
H            3.80177744384552        1.27053276325191        1.05669577812136
H            4.00098447249512        1.24725993680967       -0.70204666396989
H            2.66513065911600        2.16073922596498        0.04459655733230
H            3.62957681546938       -1.70285841188866        0.05695956231728
H           -1.62201610473521        3.01555244672321       -0.02823217213997
H           -2.80864846951508        2.04182318716631       -0.94917158695709
H           -2.84072714765796        2.02626984824296        0.82801862301144
H           -1.48538070623033       -3.23432019217953        0.83668571964924
H           -1.45566666509051       -3.23127481917775       -0.95310232538014
H           -2.69288876324302       -2.34375687953668       -0.07858980516543
H            1.40723913569923       -2.94343227818586        0.04894242537597
25
 energy: -43.133745023093 gnorm: 0.002957963898 xtb: 6.6.1 (8d0f1dd)
C            3.25826640261693        1.24317602168677        0.10539031957198
N            2.36143822393209        0.11649205561429        0.01759365908299
C            2.66718028705577       -1.24235697527544        0.03945987143724
N            1.48382998060432       -1.94216498065030        0.02087621527119
C            0.43879799424438       -1.09727625964070       -0.01902893848674
C            0.95946841613673        0.20708560098937       -0.01872657687981
C            0.13324005527269        1.34640533273325       -0.03310486896855
O            0.45070083381498        2.54041013566192       -0.03611106786075
N           -1.25571147638922        0.98628711064843       -0.04174457948947
C           -2.20012769530521        2.09062679662456       -0.04891983151634
C           -1.79189368460240       -0.25571080305488       -0.05521340516015
O           -2.99570894214332       -0.44238980243692       -0.07116747507554
N           -0.91403343797510       -1.36980245786766       -0.04669227774028
C           -1.64764834697056       -2.63628193759143       -0.05976492338022
H            3.80152688342042        1.26837901354693        1.05734765405717
H            4.00042052053806        1.24615215523428       -0.70276795860168
H            2.66372529610810        2.15976486525539        0.04565406069615
H            3.62851424015612       -1.70622676105122        0.05603148527521
H           -1.62333768671499        3.01566813211654       -0.02831470747193
H           -2.80940193278337        2.04105484196667       -0.94961124992310
H           -2.84171724086597        2.02549081275926        0.82778116789453
H           -1.48211682403792       -3.23020333247956        0.83910359404854
H           -1.45179067905977       -3.22699913226806       -0.95461692174778
H           -2.69448553737385       -2.34610451407161       -0.07829744005811
H            1.40852759692490       -2.94366075387358        0.04876725259399
25
 energy: -43.133751544806 gnorm: 0.001206857810 xtb: 6.6.1 (8d0f1dd)
C            3.25812337300822        1.24325012024098        0.10529266310382
N            2.36120867278735        0.11692119361234        0.01722425505721
C            2.66693628840290       -1.24225248945683        0.04036778490970
N            1.48355651260369       -1.94203857204622        0.02101055197313
C            0.43951864492657       -1.09674352066307       -0.01897774435313
C            0.95942453697536        0.20728445189472       -0.01865182886508
C            0.13295335405194        1.34640087259852       -0.03319254650036
O            0.45068420060254        2.54034963189423       -0.03615174461430
N           -1.25575405586733        0.98658394310762       -0.04163120050630
C           -2.20006506564285        2.09093404746327       -0.04879063916744
C           -1.79157540088003       -0.25622397275410       -0.05516346693689
O           -2.99547042641945       -0.44188339950201       -0.07119015417755
N           -0.91372756051813       -1.37036467903630       -0.04668433632752
C           -1.64808340044290       -2.63616753300465       -0.05999004287250
H            3.80121097056391        1.26893017100101        1.05717100998235
H            4.00033511042651        1.24639185013672       -0.70275383642783
H            2.66382482837710        2.16024612852173        0.04517563245971
H            3.62826583628053       -1.70641348269172        0.05602691258735
H           -1.62243319730970        3.01553134637444       -0.02820875169861
H           -2.80898231233649        2.04140956307847       -0.94950079731414
H           -2.84111995329231        2.02584798523430        0.82808723124896
H           -1.48273764250216       -3.23149886765454        0.83857929735130
H           -1.45249521823580       -3.22823623024069       -0.95465138510018
H           -2.69493673241376       -2.34692026094743       -0.07849713649528
H            1.40900188345811       -2.94352313258447        0.04902333025214
25
 energy: -43.133752459638 gnorm: 0.000631597223 xtb: 6.6.1 (8d0f1dd)
C            3.25846193089918        1.24301840129764        0.10559704890689
N            2.36112375585634        0.11709795121609        0.01683872927626
C            2.66685621498195       -1.24232395789172        0.04077699368926
N            1.48322183264768       -1.94205429602416        0.02068868227038
C            0.43992888114961       -1.09630130094237       -0.01914444470000
C            0.95957767419537        0.20740782099800       -0.01865399157417
C            0.13267882809917        1.34629089721272       -0.03322310909532
O            0.45080788285562        2.54025167362865       -0.03613192962150
N           -1.25581701066054        0.98676163232232       -0.04163219823448
C           -2.20042113435580        2.09082232160724       -0.04899750843012
C           -1.79140276052272       -0.25661240215237       -0.05520412208444
O           -2.99530860617723       -0.44150007054415       -0.07119483479731
N           -0.91363017813030       -1.37047246954561       -0.04660086767882
C           -1.64855076476811       -2.63590978643807       -0.05972747078121
H            3.80167889947376        1.26872624761144        1.05733637400320
H            4.00083222972700        1.24668510797327       -0.70226613525111
H            2.66460541876313        2.16033995721931        0.04579220861019
H            3.62836270169065       -1.70605767823525        0.05479531819287
H           -1.62309371319280        3.01566665271389       -0.02839689722261
H           -2.80909795364330        2.04112605799876       -0.94970900699496
H           -2.84144105536820        2.02564898122116        0.82777570657663
H           -1.48314447925204       -3.23168828473262        0.83868242991072
H           -1.45304937101560       -3.22863077784854       -0.95412389260316
H           -2.69481755009174       -2.34688450815526       -0.07823142340316
H            1.40930157344277       -2.94359300593408        0.04887739860454
25
 energy: -43.035223635159 gnorm: 0.464397195747 xtb: 6.6.1 (8d0f1dd)
C            3.29445008631004        1.30063754255558        0.11092122472342
N            2.39328748705402        0.15001673300153        0.01272545216503
C            2.72623852405358       -1.27802419025719        0.03162939509185
N            1.56525952100211       -1.93365641842045        0.03149111827184
C            0.51763201348974       -1.14723105238001       -0.02858547199874
C            1.03664978274182        0.20196619520438       -0.03571003748875
C            0.16942514007850        1.30437231501251       -0.05451700243879
O            0.37839797269436        2.53741049771508       -0.07151298543632
N           -1.28004771164709        0.94475288436067       -0.04623672427137
C           -2.19305372583238        2.07322220544156       -0.05028940025468
C           -1.76606155599819       -0.32458499500801       -0.06342298361468
O           -2.96603678983155       -0.52519060438236       -0.07103534804427
N           -0.85530580005258       -1.49172925702359       -0.05374426703304
C           -1.95083093176895       -2.64777301350096       -0.06749965710107
H            3.86758488855752        1.34340891766401        1.04698318866468
H            4.02879330840414        1.39228052565521       -0.72848596358484
H            2.64807901769011        2.23768613688590        0.13975360128515
H            3.69614544110953       -1.77800719377719        0.06805611133611
H           -1.59622391860064        3.00736951820215       -0.02586877451106
H           -2.77995624829813        2.00574509270280       -0.94555134847191
H           -2.79982879475274        1.99512216532742        0.83322675387918
H           -1.70964827777136       -3.25725987250762        0.84499809116167
H           -1.67870863250685       -3.26397631023655       -0.95825749018970
H           -2.72569988488611       -2.24332900674681       -0.08155057089938
H            1.46061749753951       -2.93648172644423        0.07038942471064
25
 energy: -43.106574118885 gnorm: 0.102838539018 xtb: 6.6.1 (8d0f1dd)
C            3.27849636180377        1.29106234123793        0.11337633370503
N            2.39504316482157        0.13515982444424        0.01254630089538
C            2.72286320384208       -1.25959726723817        0.03478583463279
N            1.54872146003142       -1.93903245460257        0.02891915547305
C            0.48470121162497       -1.13727048391453       -0.02667940396943
C            1.01003880716880        0.19545062109935       -0.03435478189717
C            0.16438784623509        1.31191328586135       -0.05413066587003
O            0.41257482304560        2.52730035057168       -0.06977217017659
N           -1.25657589451584        0.94893127642207       -0.04699418285445
C           -2.18782435932436        2.06442664420839       -0.04923791277761
C           -1.76665255167926       -0.29683284321641       -0.06120607620893
O           -2.97158850860006       -0.47386181971486       -0.07157341265924
N           -0.88170426705709       -1.44860762497119       -0.05337401243932
C           -1.83503843445719       -2.67803585457669       -0.06477317271389
H            3.85819332556006        1.31970358016397        1.04432864424561
H            4.00075839514584        1.37525445816733       -0.71999807911163
H            2.64876151275978        2.20872847842092        0.12575032061184
H            3.68401019735960       -1.74534419275180        0.06923641172561
H           -1.59787674912362        2.98982840427325       -0.02829568435069
H           -2.78896448665486        2.01092986353717       -0.94784870224275