25
 energy: 0.000000000000 xtb: 6.6.1 (8d0f1dd)
C            3.23720163006194        1.16630919979326        0.08434469647475
N            2.29877817382611        0.07527477071623        0.03981603040599
C            2.58028210190900       -1.21425402444508        0.03006176031096
N            1.43813958087363       -1.93419271955128        0.00098261760884
C            0.39035688448383       -1.05887472636071       -0.00790371836672
C            0.93510056364412        0.21347819449412        0.01709077491437
C            0.09450143893243        1.40504303904423       -0.00410947031874
O            0.49712751527797        2.54126714362870       -0.00342325688240
N           -1.25076640035757        1.06271879480407       -0.03085478223738
C           -2.21907211982101        2.15522099834493       -0.05001256985998
C           -1.81739487048744       -0.20012725993278       -0.04692818574614
O           -2.99983886758376       -0.37846417018721       -0.07008878229737
N           -0.92618586207120       -1.30210215599479       -0.03682761578324
C           -1.46982264913417       -2.64643102187190       -0.06029820460571
H            3.71247264356769        1.21471455160235        1.06488849150277
H            4.00791497605742        1.03430808813993       -0.67357694370751
H            2.69910007168542        2.09770118228144       -0.09130154882931
H            3.56654120610678       -1.63682992603973        0.04233140067262
H           -1.67107961066214        3.09322851271934       -0.02552706933167
H           -2.82428953597071        2.09428624779827       -0.95318082946668
H           -2.87644029173232        2.07745725625962        0.81450067533302
H           -1.17061996399332       -3.19584890659852        0.83242232437030
H           -1.14560257411436       -3.17511610292205       -0.95688275822323
H           -2.55549792440841       -2.55659984320617       -0.07459039797972
H            1.38130855184625       -2.94313852034425       -0.01389874181052
25
 energy: -5.398116809799 xtb: 6.6.1 (8d0f1dd)
C            3.24396621380805        1.17756176424130        0.08675510913027
N            2.30811280783436        0.09560609489035        0.03771663847245
C            2.59962711362701       -1.23253300204755        0.03005375392982
N            1.42752879475227       -1.94016920240401        0.00081123462189
C            0.39643351870279       -1.05609786295005       -0.00827330990238
C            0.93027092506422        0.22263133277223        0.01524336242905
C            0.10172256008791        1.39607672838524       -0.00526525778553
O            0.49833486610002        2.56194785796164       -0.00464883722733
N           -1.26028568581322        1.05066039827366       -0.03111053865601
C           -2.22050318468209        2.14679310452890       -0.04985119888352
C           -1.82355564193161       -0.20064119002922       -0.04730859173826
O           -3.02019573413431       -0.38302793656801       -0.07040987556250
N           -0.93414086281005       -1.30088390320566       -0.03705356819495
C           -1.47208382000221       -2.64288774196202       -0.06021040589509
H            3.72219791900387        1.22343840969772        1.06881881505143
H            4.01202887083797        1.04277536172236       -0.67625451017538
H            2.69721127273459        2.10221472164926       -0.08877314073882
H            3.57783300589458       -1.65885442759912        0.04269356463339
H           -1.65892246167524        3.07805073553823       -0.02535940583639
H           -2.82589699476379        2.09334393872200       -0.95425359477833
H           -2.87807522384134        2.07671493726705        0.81601919653434
H           -1.16881870721987       -3.19418069521341        0.83190122595743
H           -1.14377088073817       -3.17365948750318       -0.95600643645683
H           -2.55737277475613       -2.55196781011014       -0.07458570212054
H            1.36056877185656       -2.94388352388557       -0.01361463066091
25
 energy: -6.543436613429 xtb: 6.6.1 (8d0f1dd)
C            3.25435851695342        1.18774048348930        0.09039558983003
N            2.31880756662707        0.10851674938522        0.03372528958938
C            2.61185882381621       -1.24979427273263        0.02996902044274
N            1.41235077105211       -1.93855365143674        0.00099802223919
C            0.40005695290949       -1.04952174517159       -0.00945263162802
C            0.92848836175728        0.23265402126249        0.01152243116985
C            0.10777690537864        1.38355326878456       -0.00876574658431
O            0.48295972422866        2.56787981347323       -0.00912586739419
N           -1.27239732844229        1.03603666267484       -0.03223729099212
C           -2.22140891031756        2.13579996599618       -0.04955650087454
C           -1.82940137711631       -0.20358121945620       -0.04803753804346
O           -3.03137048008682       -0.39288181953923       -0.07043482160625
N           -0.94132240628190       -1.29641682411228       -0.03757209752650
C           -1.47325194689110       -2.63669241384965       -0.05991139212261
H            3.74280347113772        1.23922121478036        1.07013466331115
H            4.02102484613788        1.06622372751702       -0.67881847493126
H            2.69922840487330        2.10924504709777       -0.07836088385451
H            3.58176401423462       -1.68894593395346        0.04365993266951
H           -1.63403398815874        3.05192655344817       -0.02511444479361
H           -2.82810585903057        2.09274576763322       -0.95449233782485
H           -2.87913716238018        2.07632091551082        0.81788224299161
H           -1.16715456525655       -3.18952723972832        0.83160679117719
H           -1.14198224628766       -3.16982274357349       -0.95457113401890
H           -2.55859433777419       -2.54342022063207       -0.07446164389983
H            1.32889691685366       -2.93967750469555       -0.01194728117842
25
 energy: -5.972461664912 xtb: 6.6.1 (8d0f1dd)
C            3.26573814334012        1.19650334859835        0.09521038662364
N            2.33041969683171        0.11256380270766        0.02877869810118
C            2.61493879122837       -1.26447553099301        0.02907595442706
N            1.39822562989994       -1.93438630029174        0.00171232043579
C            0.40078515620932       -1.04174590255741       -0.01178029188461
C            0.93195925898143        0.24070619894305        0.00583666174261
C            0.10837057386489        1.37605945295247       -0.01662144439444
O            0.45627778010967        2.57034302001303       -0.02008895276610
N           -1.28392030883197        1.02236201605794       -0.03556060499115
C           -2.22074005744518        2.12586376818163       -0.04932939028754
C           -1.83624552884055       -0.21098350581868       -0.04958136415995
O           -3.03854069619429       -0.40964855348426       -0.07002260215231
N           -0.94424038240036       -1.29241017589506       -0.03872125402731
C           -1.47188702266392       -2.63146936552817       -0.05905202337800
H            3.77205500143696        1.25195692086371        1.06785625707466
H            4.02954231971437        1.10593609020367       -0.68363134224235
H            2.70257987341555        2.11822854791022       -0.05337761337840
H            3.57551023567921       -1.72506891938236        0.04539401962638
H           -1.60125449696678        3.02176116168700       -0.02549351013955
H           -2.83041035543637        2.09447108420345       -0.95313760137861
H           -2.87666733656139        2.07775739197217        0.82065213886129
H           -1.16553621010322       -3.18280074966406        0.83343797459946
H           -1.14009580202682       -3.16551601447429       -0.95312249989694
H           -2.55729060497612       -2.53290752467326       -0.07385411732855
H            1.29264100967163       -2.93407165936002       -0.00754590293897
25
 energy: 3.380714613504 xtb: 6.6.1 (8d0f1dd)
C            3.30253580123257        1.22552776142701        0.11547876401937
N            2.37131458695190        0.11952554326136        0.00979434966245
C            2.61779547720458       -1.31153189892749        0.02350884195627
N            1.35282355946420       -1.91970495068428        0.00490933709570
C            0.40098591070661       -1.01345539909177       -0.02219392943032
C            0.94909998525057        0.26670436874657       -0.01823539013027
C            0.10596657953935        1.35691431321480       -0.05372445920772
O            0.35983062836077        2.57835362239575       -0.07278325791444
N           -1.32093652982657        0.97707276933792       -0.05268499226984
C           -2.21524785483270        2.09596991902689       -0.04902007150551
C           -1.86069074716759       -0.24042014375485       -0.05708483072236
O           -3.06108375546062       -0.47256678093831       -0.06762692645686
N           -0.94931459756329       -1.28071945027930       -0.04430452808703
C           -1.46247871290549       -2.61737491145618       -0.05441295244768
H            3.88458244216574        1.27454515779193        1.05613454181441
H            4.04597789019419        1.26646540582337       -0.70933838415258
H            2.70683211419843        2.15004442498274        0.06637238947467
H            3.54244693296881       -1.85455772046383        0.05311452473485
H           -1.48679920391711        2.92120337837876       -0.02943655205074
H           -2.83950499727302        2.10652983608747       -0.94517965886333
H           -2.85969708866575        2.08718205653030        0.83284957064815
H           -1.15799933279668       -3.15920356006711        0.84414643391391
H           -1.13142114002001       -3.15473326077770       -0.94637804967312
H           -2.54790563153782       -2.49878960998939       -0.07026960082983
H            1.16510235166511       -2.91395226840263        0.01339872656913
25
 energy: 25.788781693152 xtb: 6.6.1 (8d0f1dd)
C            3.33599986787896        1.25603518548488        0.14141787450868
N            2.41320587746454        0.12481588574421       -0.01328066917851
C            2.61715243581155       -1.35901747761575        0.01596859330419
N            1.30742437086148       -1.90277145341156        0.00954134155594
C            0.40022963039425       -0.98159437894009       -0.03601025543052
C            0.96898425817616        0.29475914253714       -0.04914288699010
C            0.10553090435387        1.34176841480202       -0.10404305966743
O            0.26089981055228        2.58480708712126       -0.14420557448134
N           -1.35849839520805        0.93259666866397       -0.07716167962561
C           -2.20670124225263        2.06806308255455       -0.04863710455195
C           -1.88622027544186       -0.27151229809254       -0.06749099856067
O           -3.08242650829438       -0.53993448447655       -0.06406797724290
N           -0.95161375887802       -1.26848684751848       -0.05244588931536
C           -1.44800617885018       -2.60441539203443       -0.04790281936950
H            4.01140532656085        1.27112837529126        1.04044977193413
H            4.04029055619915        1.44735119143416       -0.74467288174662
H            2.70563276673186        2.18570004417195        0.22625806575587
H            3.50077288876610       -1.99082211024411        0.06312079157135
H           -1.37183876305021        2.81902331900234       -0.03561986124629
H           -2.84823239622931        2.12020592309192       -0.93361845928602
H           -2.83114877492610        2.09458362833006        0.84970810847050
H           -1.14655479714684       -3.13224862977601        0.85933272983685
H           -1.11888711331331       -3.14668742870338       -0.93669469807700
H           -2.53368095192909       -2.46518894552118       -0.06493751974217
H            1.02849512970502       -2.88912989972361        0.04116895372175
25
 energy: 29.820020170357 xtb: 6.6.1 (8d0f1dd)
C            3.33445870214102        1.26507690449987        0.15759019917708
N            2.42557938124279        0.11740008309307       -0.02825871667891
C            2.60488172128414       -1.36858659991927        0.01503491818314
N            1.30207140754487       -1.89147585389278        0.01616352962190
C            0.39733237816579       -0.96537837458132       -0.04671305045864
C            0.98405029734056        0.30526351733496       -0.07193083991928
C            0.11510039804447        1.35370753469950       -0.14376629450014
O            0.23846477965652        2.57697919696556       -0.19931798500316
N           -1.36735406436368        0.93038518775648       -0.09756933530896
C           -2.20071643815282        2.06791979076542       -0.04569329050492
C           -1.89312302690973       -0.28146731806419       -0.07548339924725
O           -3.07876940674216       -0.56590713718168       -0.06063248435192
N           -0.94153270674972       -1.26333340879213       -0.06062848133530
C           -1.43141719040505       -2.60364286770744       -0.04404927037158
H            4.06087220394561        1.21950397915249        1.02521753560284
H            3.99057358040247        1.51639169923289       -0.76229813167154
H            2.70317609492427        2.19953245964418        0.33177234186066
H            3.46645998710472       -2.03488558617730        0.07140606216134
H           -1.36327944416718        2.79786046559808       -0.03710001860808
H           -2.84753698880051        2.12284551706372       -0.92115425345157
H           -2.80146746492915        2.08347510822582        0.86407488484115
H           -1.13649890803992       -3.11821376678824        0.87100962186163
H           -1.10871249511934       -3.14873506690896       -0.93093630160876
H           -2.51824492992366       -2.45682639677906       -0.06132939373034
H            0.97784680044172       -2.86886046506762        0.06162604958785
25
 energy: 24.691211370538 xtb: 6.6.1 (8d0f1dd)
C            3.30836707139529        1.25780390251981        0.18706126852389
N            2.42511727112613        0.08401490703401       -0.04837114337067
C            2.56380274057012       -1.34599564397600        0.02291174401325
N            1.33225484162352       -1.88039295445663        0.03388140054543
C            0.38599193550178       -0.94881791187425       -0.06916507236351
C            1.01440359791283        0.30156139629774       -0.11561235817214
C            0.14321266698996        1.40157604974368       -0.22562330835883
O            0.27425447842130        2.55663786471374       -0.32859077721571
N           -1.35234603998777        0.95409168819699       -0.14275588552230
C           -2.19694078051451        2.09258099131376       -0.03072285162863
C           -1.89521956666074       -0.28518802137773       -0.09301986830640
O           -3.05868449444889       -0.57855739360858       -0.05094324379770
N           -0.90988909789035       -1.26601240256038       -0.08252906883679
C           -1.39640678272598       -2.62005361325578       -0.03918295935002
H            4.09646271832300        1.08885631077929        0.97776115204694
H            3.85777471218190        1.57753053366344       -0.74880933393285
H            2.71094603619099        2.16974817285222        0.49847688963000
H            3.39158608669917       -2.03422242308913        0.08504356403438
H           -1.44990946791425        2.83492323940751       -0.02970493950239
H           -2.85731622835560        2.14749086187534       -0.88506307666889
H           -2.74848524893842        2.05937788409858        0.90162760132580
H           -1.11475476616336       -3.10539228461718        0.89225243079159
H           -1.08745404457142       -3.16988173886073       -0.92237306342457
H           -2.48505167166217       -2.47447835365754       -0.05568878453704
H            0.96049870083343       -2.82817245899012        0.09617358022440
25
 energy: 40.771803840740 xtb: 6.6.1 (8d0f1dd)
C            3.31359357283523        1.26423160519043        0.22561559379526
N            2.44827656818497        0.07092867489300       -0.07448529355191
C            2.54646485946470       -1.35692930403963        0.02442762673656
N            1.31750864460101       -1.86540466846737        0.04547140747388
C            0.37994075105868       -0.92139730150169       -0.09068328317789
C            1.03912535523264        0.31695267804228       -0.16280763039847
C            0.15720532317647        1.41642117581564       -0.30678463520132
O            0.23307111930513        2.57117760332836       -0.49140016857126
N           -1.36213207031165        0.94339391203214       -0.18556350930537
C           -2.18912001087704        2.09248471127149       -0.01795599509980
C           -1.90863359308069       -0.30097461836680       -0.11141668751564
O           -3.06109855279026       -0.61681063367319       -0.03902473766130
N           -0.89943939365245       -1.26239002377284       -0.10288575015582
C           -1.36740158047480       -2.62580067385312       -0.03358978985211
H            4.19229074743596        0.99174464948969        0.94210026236766
H            3.76741049621212        1.72183197939827       -0.76130925791828
H            2.70821219707826        2.15900397044160        0.71329336569055
H            3.33445227985987       -2.10315243834425        0.10100984958398
H           -1.42872357952362        2.81581493062779       -0.02871314891743
H           -2.87941619124797        2.17391093535286       -0.84580392671040
H           -2.69451511970853        2.04765593620945        0.94134796669055
H           -1.09340740906035       -3.08410643298942        0.91418763511019
H           -1.05871000994025       -3.18702423037182       -0.90785493972575
H           -2.45671060268845       -2.47913632390977       -0.05498765616323
H            0.87397086684694       -2.79339751063101        0.13484659862456
25
 energy: 38.089086395272 xtb: 6.6.1 (8d0f1dd)
C            3.32518234303388        1.24045155330579        0.25413602367013
N            2.45861007614350        0.05998764258549       -0.08579616487807
C            2.54949335493976       -1.31751709619392        0.03852820760345
N            1.31062623032743       -1.87689224475094        0.04837911404806
C            0.37551392702088       -0.91382959000295       -0.10268750252299
C            1.05039516804173        0.30571590135870       -0.19491919504395
C            0.14349217450993        1.40898204281743       -0.32221037908050
O            0.22796635263631        2.66344508085898       -0.68809336081712
N           -1.33205304987500        0.93230856802460       -0.20600258049642
C           -2.18813928278134        2.09473012846245        0.00126235097890
C           -1.91075533704380       -0.30114610837819       -0.13002512888773
O           -3.07646018506741       -0.60808834779495       -0.02506109234144
N           -0.90835637738432       -1.28358016386608       -0.12497843927961
C           -1.35749977100020       -2.65086958765556       -0.03533467841160
H            4.21577178933395        0.92770962422024        0.87640217432300
H            3.68385133283971        1.80543727747042       -0.70697059534443
H            2.72019671687100        2.04243964354553        0.85000163772433
H            3.31447841346125       -2.07971394082565        0.10824276219774
H           -1.42129012244113        2.88884806858660       -0.02530604837031
H           -2.92142352273457        2.22171137851147       -0.79817956993337
H           -2.66773980447983        2.05029897551263        0.97711135775119
H           -1.07927292460049       -3.09038137612631        0.92433866986533
H           -1.03048243074487       -3.22687259639277       -0.89842469806564
H           -2.44081410262631       -2.52420891758978       -0.06387111155229
H            0.87092369955575       -2.77993731351116        0.15649214301055
25
 energy: 37.401843406113 xtb: 6.6.1 (8d0f1dd)
C            3.31336646637614        1.22987490834679        0.29159769759626
N            2.45030791424909        0.06099736103745       -0.10338664056628
C            2.53548688261155       -1.30211472297212        0.06173087065700
N            1.29640267448900       -1.86342996077034        0.05431296271563
C            0.36960138251465       -0.89747884491572       -0.13717198921877
C            1.04387327474924        0.31656740142176       -0.27543787329105
C            0.13877693499451        1.41306301111284       -0.46191846295404
O            0.24818139259546        2.64002893486450       -0.79450086223788
N           -1.32603797848714        0.94244959324746       -0.26103757515373
C           -2.18163799612832        2.10062601127598        0.02728569866010
C           -1.90736818609176       -0.28976117785088       -0.15997697484182
O           -3.07177392074918       -0.59914530185587       -0.01284328617275
N           -0.91136451826104       -1.28024015601698       -0.16101829185641
C           -1.33442291393680       -2.65768445375243       -0.03041929334411
H            4.26297547967020        0.85215985306915        0.82727106796613
H            3.59040970246822        1.87956858177786       -0.66243417752064
H            2.72932688920747        1.98188057101818        1.00173223106460
H            3.28575638812890       -2.07963148176670        0.13149022364428
H           -1.42527721130908        2.90804462058373       -0.01394502818466
H           -2.95996628447374        2.25203030179006       -0.73416315200431
H           -2.61316344926885        2.02828447089400        1.03318463858002
H           -1.04467744653282       -3.07235658592118        0.94101338399716
H           -0.99410240440954       -3.25798411290055       -0.87553263154849
H           -2.41869270688053       -2.56099460375496       -0.05952067254534
H            0.83623430241014       -2.75572561578995        0.20072203270628
25
 energy: 20.945245601011 xtb: 6.6.1 (8d0f1dd)
C            3.28932924142972        1.20897256720759        0.31621798966668
N            2.40352619520352        0.10381029332465       -0.11869798007025
C            2.53523922920641       -1.27094303360473        0.11457857515365
N            1.26621431017124       -1.85106348022891        0.04928066642386
C            0.37626908443330       -0.89698974781284       -0.17339372002371
C            0.98385612971979        0.33196648176776       -0.37464774424550
C            0.08627049362673        1.38742009482209       -0.64591974661063
O            0.32646264451998        2.55294929481412       -0.78846217550424
N           -1.30878629937914        0.96861542260936       -0.30425423487665
C           -2.16906020108327        2.09662971487245        0.05476687639697
C           -1.87518193761069       -0.24679763640495       -0.17872505927648
O           -3.05370774495796       -0.53908810030233       -0.00950883496797
N           -0.93462626503917       -1.27269628877588       -0.20571141931818
C           -1.32556817539239       -2.64759939573829       -0.02685298995904
H            4.24760861376946        0.83627390084451        0.73957004768484
H            3.50676474388058        1.88073050460524       -0.54176194552563
H            2.77734378138383        1.85673823195142        1.06138715988470
H            3.30315897706770       -2.02101217239911        0.14030033471542
H           -1.45262745137643        2.94621168942578        0.00956944213686
H           -2.98691782553834        2.26536965549865       -0.66000822804355
H           -2.57221185821503        1.99424092571778        1.07407242641810
H           -1.00239710716676       -3.05526698490013        0.94351223446011
H           -0.95795550071210       -3.28332883592735       -0.84719487332736
H           -2.40957847541410       -2.60696005284553       -0.04755728794024
H            0.85879006540887       -2.74915444634925        0.24647438289546
25
 energy: 21.263360458262 xtb: 6.6.1 (8d0f1dd)
C            3.25799026253674        1.18371321928706        0.34782299083579
N            2.37994080206886        0.10292271438497       -0.15783902506753
C            2.51722678834243       -1.25049656591992        0.15493992024802
N            1.26951827212698       -1.84394501146504        0.06461276321993
C            0.37131167760001       -0.89955592644095       -0.21658235395127
C            0.96940994666349        0.32729204524666       -0.43819730587997
C            0.07014823178328        1.39343981811867       -0.74363367788235
O            0.33282074573544        2.54439618447258       -0.97899615547330
N           -1.29826323874682        0.99069630655522       -0.35033468974058
C           -2.14126336818503        2.11379960238516        0.08093998930379
C           -1.86714042821472       -0.23183991604299       -0.20100926435286
O           -3.03721461664135       -0.50197232737258       -0.00941524270875
N           -0.93599747449168       -1.27215419416423       -0.25915287673294
C           -1.30715803469370       -2.65085414616382       -0.02819880121629
H            4.26534982586099        0.73126876453084        0.65569078233814
H            3.37606768822704        1.96360238028258       -0.48025749136498
H            2.78875417021050        1.75789143018625        1.25447594776409
H            3.28835115191835       -1.98149260479371        0.14955580097780
H           -1.47474988483180        2.98142975992262        0.03857419378256
H           -3.00550290837082        2.29307337153438       -0.57789793667620
H           -2.49202791952414        1.95751007180480        1.11952868104116
H           -0.96790659002486       -3.02268464490579        0.95528719571334
H           -0.92185917551566       -3.31013687265495       -0.82267174725517
H           -2.39460580215836       -2.65380530650375       -0.04487727248385
H            0.86901454626049       -2.73306955011193        0.31466947170863
25
 energy: 16.145785009961 xtb: 6.6.1 (8d0f1dd)
C            3.21723984479488        1.15696486348031        0.36986558322095
N            2.34774912623592        0.10819601848551       -0.19302111801129
C            2.50131053911144       -1.22544616122588        0.20688757369633
N            1.28219114384695       -1.84369758146291        0.07708535230010
C            0.36725041568786       -0.92219612965275       -0.26387438295121
C            0.94954995815517        0.30395186158854       -0.47299449708516
C            0.04304773201292        1.38566308970883       -0.78236060833997
O            0.34407608098461        2.54367703321951       -1.15061789567617
N           -1.28563362519299        1.01932075231149       -0.38214846447342
C           -2.11132719777598        2.13061907493303        0.10566525780973
C           -1.85708415363558       -0.21477269954135       -0.22507962372815
O           -3.02404178384515       -0.44386680718784       -0.00354358381206
N           -0.93958316782448       -1.27295549569845       -0.32094818262452
C           -1.30122619638577       -2.64698208039995       -0.03626376600247
H            4.22737160185488        0.67978666457113        0.56919800360396
H            3.26780035150879        2.01094360340588       -0.38069074480119
H            2.81337817867077        1.62927227711595        1.35821258839976
H            3.30450241464007       -1.91939485880758        0.13409235582839
H           -1.49183387623843        3.01339678727190        0.07317507030673
H           -3.01199301272563        2.30424273719883       -0.49722883299167
H           -2.41996393279450        1.92306615866451        1.14991494088987
H           -0.94262113496846       -2.98231576440022        0.95549375845340
H           -0.89788699366018       -3.31926362898227       -0.80469381665270
H           -2.38924076652377       -2.69451684664833       -0.04349613289437
H            0.91918312200233       -2.73466426577571        0.38440506168239
25
 energy: 13.746677905342 xtb: 6.6.1 (8d0f1dd)
C            3.17387234814312        1.14165895136853        0.39426614285703
N            2.32214468968677        0.12118477186891       -0.21527965971121
C            2.48709240558527       -1.20719624198233        0.26751573242176
N            1.28501569151319       -1.84169513699947        0.09353610509908
C            0.36440881370723       -0.94679603668837       -0.30922434993540
C            0.93512013656354        0.28693655054247       -0.52421678642762
C            0.02497835301375        1.37101069593739       -0.86829799396381
O            0.33787571788585        2.50516833545410       -1.26901438927407
N           -1.28087494110870        1.04055750434307       -0.42617666486826
C           -2.07925573122261        2.14142462883185        0.13685956352139
C           -1.84829810154833       -0.20264468222042       -0.26239105748243
O           -3.01498330378586       -0.39646725376850        0.01036059831823
N           -0.94723137803187       -1.27147472612079       -0.38640790292769
C           -1.30041151953990       -2.63672907055024       -0.04640431512176
H            4.17968508522938        0.66427104088524        0.49019224944161
H            3.17012813065991        2.04923236557182       -0.27127367934983
H            2.82845460517586        1.50201337553976        1.43199852421005
H            3.32994706602075       -1.86111958621730        0.10891302179166
H           -1.47833493894199        3.02696870665175        0.10771225430201
H           -3.01984339307493        2.31302277820118       -0.40740845491820
H           -2.33482649590307        1.89240386175401        1.18887947993922
H           -0.92613553369585       -2.92466490350401        0.95698089002026
H           -0.87701105270114       -3.32452360048848       -0.78669467589346
H           -2.38542163811615       -2.72050873727908       -0.04491909911412
H            0.96611965242139       -2.73300498895890        0.45752836321279
25