25
 energy: 0.000000000000 xtb: 6.6.1 (8d0f1dd)
C            3.23720163006194        1.16630919979326        0.08434469647475
N            2.29877817382611        0.07527477071623        0.03981603040599
C            2.58028210190900       -1.21425402444508        0.03006176031096
N            1.43813958087363       -1.93419271955128        0.00098261760884
C            0.39035688448383       -1.05887472636071       -0.00790371836672
C            0.93510056364412        0.21347819449412        0.01709077491437
C            0.09450143893243        1.40504303904423       -0.00410947031874
O            0.49712751527797        2.54126714362870       -0.00342325688240
N           -1.25076640035757        1.06271879480407       -0.03085478223738
C           -2.21907211982101        2.15522099834493       -0.05001256985998
C           -1.81739487048744       -0.20012725993278       -0.04692818574614
O           -2.99983886758376       -0.37846417018721       -0.07008878229737
N           -0.92618586207120       -1.30210215599479       -0.03682761578324
C           -1.46982264913417       -2.64643102187190       -0.06029820460571
H            3.71247264356769        1.21471455160235        1.06488849150277
H            4.00791497605742        1.03430808813993       -0.67357694370751
H            2.69910007168542        2.09770118228144       -0.09130154882931
H            3.56654120610678       -1.63682992603973        0.04233140067262
H           -1.67107961066214        3.09322851271934       -0.02552706933167
H           -2.82428953597071        2.09428624779827       -0.95318082946668
H           -2.87644029173232        2.07745725625962        0.81450067533302
H           -1.17061996399332       -3.19584890659852        0.83242232437030
H           -1.14560257411436       -3.17511610292205       -0.95688275822323
H           -2.55549792440841       -2.55659984320617       -0.07459039797972
H            1.38130855184625       -2.94313852034425       -0.01389874181052
25
 energy: -5.396440019678 xtb: 6.6.1 (8d0f1dd)
C            3.24413033984575        1.17803846690973        0.08675605762771
N            2.30842230573460        0.09589259460246        0.03774152389087
C            2.60015209607718       -1.23218433282195        0.03007904954289
N            1.42816232963064       -1.94006117500754        0.00084245137060
C            0.39678668637512       -1.05629093440776       -0.00825760428326
C            0.93053632020089        0.22258754046404        0.01526704630069
C            0.10195945139947        1.39599243105215       -0.00524870482174
O            0.49846792446587        2.56190549550540       -0.00462954531714
N           -1.25998031854987        1.05043097085755       -0.03110560776380
C           -2.22031090785036        2.14644202377867       -0.04985737504209
C           -1.82316849018903       -0.20089780161421       -0.04730620596564
O           -3.01979548227101       -0.38330098866596       -0.07041116979971
N           -0.93391706623916       -1.30123924405680       -0.03705590450584
C           -1.47323957921564       -2.64295370233200       -0.06024685540134
H            3.72249598719027        1.22399233082036        1.06875695802728
H            4.01217255111121        1.04346756089626       -0.67631935382906
H            2.69726662791120        2.10264917831222       -0.08866623301857
H            3.57846737752988       -1.65827192693693        0.04272966780704
H           -1.65885303510073        3.07776753281725       -0.02536573176769
H           -2.82567661989988        2.09288098071469       -0.95426862612482
H           -2.87786487935756        2.07625138242308        0.81601387334902
H           -1.17103757313589       -3.19474776474142        0.83188096613665
H           -1.14596872449986       -3.17424016113091       -0.95608768989205
H           -2.55845726593223       -2.55131094637919       -0.07463376183156
H            1.36146461270535       -2.94377090888717       -0.01357332854114
25
 energy: -6.551063355775 xtb: 6.6.1 (8d0f1dd)
C            3.25389043162780        1.18862280853044        0.09009425404997
N            2.31885586096121        0.10902935351472        0.03391780350837
C            2.61310824226979       -1.24769156932591        0.03012835424469
N            1.41543252592941       -1.93839628987320        0.00114674126120
C            0.40124549561646       -1.05098551570912       -0.00927178654457
C            0.92896813861309        0.23174136495808        0.01185403906969
C            0.10859131479956        1.38325150690816       -0.00838757735645
O            0.48436835069959        2.56682597225804       -0.00867049465763
N           -1.27081972477412        1.03599620990049       -0.03210411765270
C           -2.22059575063030        2.13539864853027       -0.04960385924057
C           -1.82723680557716       -0.20418757713335       -0.04796062885938
O           -3.02888611814255       -0.39318055945754       -0.07047098170842
N           -0.94012764203919       -1.29805646103133       -0.03751760870838
C           -1.47707210492164       -2.63712575553568       -0.06005594650612
H            3.74212546395880        1.23986856520661        1.06977514978488
H            4.02065856311745        1.06693444223133       -0.67888487157336
H            2.69904675217839        2.11021416417151       -0.07873118713699
H            3.58382518575934       -1.68440188834666        0.04372842046213
H           -1.63564110783506        3.05300353270134       -0.02515576068451
H           -2.82713231635304        2.09123457910146       -0.95450897287413
H           -2.87832797169551        2.07480131346854        0.81765857190716
H           -1.17492732449895       -3.19177184696434        0.83155496558905
H           -1.14964254350707       -3.17199879331648       -0.95496675879522
H           -2.56216783405976       -2.54043769247423       -0.07464272528448
H            1.33467558643968       -2.93965991014108       -0.01189112614698
25
 energy: -6.260537763273 xtb: 6.6.1 (8d0f1dd)
C            3.26266774094348        1.19739342758917        0.09377579153129
N            2.32902433823302        0.11285796648764        0.02970136746057
C            2.61772200186756       -1.25816253760334        0.02965858633296
N            1.40744384481412       -1.93500329692112        0.00205109770580
C            0.40360948050659       -1.04666971288478       -0.01096751509540
C            0.93257117531817        0.23718218269497        0.00738385450244
C            0.11057965475761        1.37619873486942       -0.01448422969915
O            0.46318077638127        2.56746317645070       -0.01723862922314
N           -1.27890762152069        1.02410315537082       -0.03468326494651
C           -2.21909012169428        2.12614987462576       -0.04948357349262
C           -1.83043172913042       -0.21134057243551       -0.04916372178789
O           -3.03207529174256       -0.40804094101051       -0.07024696763302
N           -0.94102631832990       -1.29668011566599       -0.03836019964887
C           -1.48070807682395       -2.63270503652560       -0.05950721118464
H            3.76585697668217        1.25190416804118        1.06740029337950
H            4.02705715716214        1.10226923925866       -0.68328006348535
H            2.70081605884956        2.11911960502369       -0.05791737532223
H            3.58178451367596       -1.71002844964086        0.04528540654659
H           -1.60946132885357        3.02813468846681       -0.02551401921983
H           -2.82786387213322        2.09059752747282       -0.95347654129245
H           -2.87538588258884        2.07395183666148        0.81968232586528
H           -1.18336036021029       -3.18849354116304        0.83299789148163
H           -1.15758354220777       -3.17056417656435       -0.95421530375233
H           -2.56551892579113       -2.52520709548518       -0.07439416208293
H            1.31131401977120       -2.93540150494082       -0.00796994079243
25
 energy: -1.528438357381 xtb: 6.6.1 (8d0f1dd)
C            3.28719692387382        1.22661503925269        0.10865158846150
N            2.36332200517161        0.11923591274156        0.01457577943578
C            2.62866548364486       -1.28657510215904        0.02600212810577
N            1.38953417206213       -1.92488521044360        0.00595101075458
C            0.41119067682541       -1.03417419516632       -0.01824557848662
C            0.94989938648426        0.25106736436842       -0.01066906578246
C            0.11450682156980        1.35863172502033       -0.04266842393403
O            0.39435877448700        2.56823418791302       -0.05756684550623
N           -1.29972663833954        0.98656351030292       -0.04788351722970
C           -2.21022524156448        2.09831637555871       -0.04968382655265
C           -1.83913309944891       -0.23875976748475       -0.05493827873279
O           -3.03855004994237       -0.46004331048584       -0.06879745821685
N           -0.93774993917835       -1.29638787696223       -0.04231988420235
C           -1.49397503759803       -2.62144454028181       -0.05638795395799
H            3.85117659732123        1.27289514237258        1.05601207199065
H            4.03367013105209        1.24026089762228       -0.70688261105103
H            2.69616131315954        2.14939279693292        0.03986327733955
H            3.56974795376098       -1.79175819844465        0.05186807042006
H           -1.52476178301625        2.95082708096756       -0.02919541155849
H           -2.82984816016251        2.09092695173685       -0.94759677678346
H           -2.85727125917569        2.07229397288776        0.82838823034056
H           -1.21964265531559       -3.17957250376382        0.84144035519645
H           -1.19161396563096       -3.17134019277387       -0.95055592678105
H           -2.57705318065258       -2.46881994515917       -0.07261246073894
H            1.24233543854868       -2.92247151238047        0.01028540361698
25
 energy: 16.689267224924 xtb: 6.6.1 (8d0f1dd)
C            3.31804243677311        1.27143373852169        0.13410278900238
N            2.41414659130911        0.12677582996543       -0.01026137625288
C            2.64411678482727       -1.32498909622175        0.01927820891465
N            1.36890636068906       -1.90948052749264        0.01292868143268
C            0.42306685198855       -1.01641876747511       -0.03098665389283
C            0.97821206927329        0.27026423790251       -0.04162651362534
C            0.12310730508088        1.33574399827936       -0.09275755443726
O            0.29620108598516        2.56717018146606       -0.12934221875235
N           -1.32666986269800        0.93254509396814       -0.07228271028731
C           -2.19357985546759        2.05865094677300       -0.05020365771807
C           -1.84960652617063       -0.28019722265597       -0.06538142036188
O           -3.04447154815188       -0.53654889766777       -0.06592905966487
N           -0.92908825725933       -1.29841343657840       -0.04970142046090
C           -1.51480475985934       -2.60664134278143       -0.05060153584147
H            3.98371281185203        1.28390284519180        1.03578355969699
H            4.02337155643866        1.45926247841767       -0.74981799305534
H            2.68045381413239        2.19596261034057        0.21282990243179
H            3.55020111701632       -1.90921600336282        0.06343871209989
H           -1.40311997888789        2.83949553630051       -0.03675905778655
H           -2.83135539002218        2.09058262114208       -0.93653698570910
H           -2.82126833110658        2.06681907645730        0.84403776307118
H           -1.27993453907584       -3.16711207596876        0.85684216100867
H           -1.24811020676415       -3.17727040807829       -0.94321775399182
H           -2.59461050759355       -2.38108883318905       -0.06917865103553
H            1.14529564562723       -2.90220398108208        0.04237668136252
25
 energy: 20.586431026515 xtb: 6.6.1 (8d0f1dd)
C            3.31728123306176        1.28659703575379        0.14722863555439
N            2.42992877284241        0.12196351230887       -0.02283573880854
C            2.64304134202668       -1.32879395230092        0.01915224346220
N            1.37552533365037       -1.90188587647534        0.01909307950285
C            0.42608519657647       -1.01109825459925       -0.03947317395583
C            0.99444403854244        0.27372836410023       -0.06080387356589
C            0.13550272700124        1.34027233255718       -0.12494427074476
O            0.27965991991877        2.55811140222540       -0.17415604123362
N           -1.32742366668048        0.92538363052157       -0.08850418335685
C           -2.18614353987522        2.05148416482852       -0.04755941225587
C           -1.84797671912113       -0.29175398029799       -0.07201458860691
O           -3.03663672295171       -0.55506455706376       -0.06318427912914
N           -0.91740839706219       -1.30267243796883       -0.05598075060344
C           -1.52004800563012       -2.60684385115992       -0.04828591248669
H            4.02774571421956        1.25847861803816        1.02065145581310
H            3.98556062008454        1.53604938904613       -0.76272488391599
H            2.67322432093147        2.21018835100365        0.29919452948369
H            3.53521808314602       -1.93864467904425        0.07120764995676
H           -1.39239553203018        2.81743875482218       -0.03803551734250
H           -2.83082076411107        2.08687552952270       -0.92548697169140
H           -2.79617262172018        2.05254618886560        0.85587452824434
H           -1.30789559353352       -3.16434471262743        0.86509661967972
H           -1.27476767459810       -3.18664342779163       -0.93951592020880
H           -2.59719016582862       -2.35151735647067       -0.06790066998212
H            1.12387676907687       -2.89082558562190        0.06094134233855
25
 energy: 17.772905635867 xtb: 6.6.1 (8d0f1dd)
C            3.28712624471869        1.29746768571685        0.17539666393623
N            2.43844406628576        0.09580151466547       -0.04386927577471
C            2.62273602410189       -1.29484696559343        0.02823340528110
N            1.42511714660941       -1.89369234810342        0.03807044289292
C            0.42184441783622       -1.01053900886746       -0.06120058229240
C            1.02790241247064        0.26180335358190       -0.10608089118429
C            0.17343593457701        1.37914720977463       -0.20304311381590
O            0.32673534772090        2.53505084199133       -0.29606833189815
N           -1.29430084714985        0.94343674121117       -0.13031138953181
C           -2.17556759755892        2.06149122251095       -0.03266751829994
C           -1.83463119752064       -0.29413460155101       -0.08856386641445
O           -3.01171122891664       -0.53571515669673       -0.05331425928138
N           -0.88478085469139       -1.32413627811840       -0.07558900516677
C           -1.52206890396645       -2.62926093337728       -0.04626726213287
H            4.06328564416230        1.15945211011101        0.97076587670234
H            3.84772099161262        1.61807806267095       -0.74602437431572
H            2.66777579596301        2.18965518291025        0.45732321678966
H            3.49512669880035       -1.92038349814128        0.08734473977621
H           -1.47275880421884        2.84899754575249       -0.03197362260840
H           -2.83734187354285        2.08923042261285       -0.88835287881906
H           -2.73905976459515        2.01074335073658        0.89290097030775
H           -1.35350268687291       -3.16936446035983        0.88007146794589
H           -1.31988748321421       -3.22143594793692       -0.93218292378783
H           -2.58850356930426       -2.34039551771626       -0.06746368182062
H            1.14907875462929       -2.86742192561231        0.09990008965940
25
 energy: 33.217683395113 xtb: 6.6.1 (8d0f1dd)
C            3.28760398916007        1.32403760986803        0.21066311334543
N            2.47076933691245        0.09031373714116       -0.07143563329157
C            2.62791913524474       -1.29737913753107        0.03219240965216
N            1.43600826025222       -1.88344805289801        0.05313227866505
C            0.42878016233193       -1.00215528972391       -0.08027667804071
C            1.05780483473200        0.26679181257945       -0.15229867840244
C            0.19955086719522        1.38252495545706       -0.27952887722131
O            0.29626278542262        2.54024851971891       -0.44389868886194
N           -1.28711914581063        0.92223132329695       -0.16977503530078
C           -2.15775173413276        2.04408286775614       -0.02201591186081
C           -1.82919595042065       -0.31525467208677       -0.10546494474090
O           -3.00093824073135       -0.56174493551835       -0.04314367517237
N           -0.86691455218909       -1.33815741576795       -0.09265581503421
C           -1.53770659774126       -2.63362853880942       -0.04323399855297
H            4.16360089980773        1.09369595714598        0.93047650743720
H            3.75139823162488        1.79858575897269       -0.76781939146005
H            2.64547976703102        2.19404416598977        0.67286555189586
H            3.47376560537170       -1.96843131571703        0.10683706721077
H           -1.44487775846415        2.81711244164170       -0.03244348802392
H           -2.84986902985207        2.09043388567774       -0.85271564900831
H           -2.67978985590015        1.97987240211113        0.92845432109953
H           -1.41299666104388       -3.16662068924118        0.89623575439255
H           -1.37433345846496       -3.25021349968396       -0.92228837667306
H           -2.59663688711978       -2.29032312772097       -0.06913571928454
H            1.11140066472009       -2.84759016048598        0.14430745337857
25
 energy: 32.049114894624 xtb: 6.6.1 (8d0f1dd)
C            3.29162171864652        1.31337563490846        0.23239146984445
N            2.47766628432407        0.10634263947982       -0.08821391149876
C            2.65535436241866       -1.26767175220401        0.04950163001616
N            1.43022415896155       -1.90248434581841        0.05815117369635
C            0.43632085637514       -1.00755877764340       -0.08597700442651
C            1.05399276295890        0.25879461705231       -0.17965518774321
C            0.19009199668954        1.35947247519781       -0.28417442010903
O            0.29762572207968        2.63432725017101       -0.60681826992785
N           -1.24942340095059        0.90102133623503       -0.18247694539851
C           -2.14235606876381        2.03110902942105       -0.01009558281995
C           -1.81601975199911       -0.31372842498177       -0.11935840448718
O           -3.00922115824115       -0.53655395213935       -0.03263286904201
N           -0.87883195164674       -1.36255414550111       -0.10599514225629
C           -1.55679039007882       -2.64652411284766       -0.04716022528577
H            4.18845919625045        1.03717436538674        0.87836176843569
H            3.65793675100154        1.88744006318647       -0.75369172490811
H            2.62667804841688        2.10758071889441        0.81253966237447
H            3.49989665319757       -1.93224699466206        0.11884786998884
H           -1.42170336865449        2.87374135969178       -0.03218666738652
H           -2.87536480260588        2.10396378819529       -0.81852979388709
H           -2.64750646937738        1.96529489006481        0.95281982025529
H           -1.43315131336501       -3.17819903039583        0.89771761896332
H           -1.38975434679881       -3.28406038546159       -0.91600105752873
H           -2.60582660774312       -2.29969710043627       -0.07901478673011
H            1.13229578684028       -2.85933054362144        0.16868487600828
25
 energy: 31.657072595859 xtb: 6.6.1 (8d0f1dd)
C            3.26708543342116        1.32380582098705        0.26801941439005
N            2.47573600932129        0.10910377716896       -0.10758823569953
C            2.65630995234811       -1.24682762364801        0.07126930709168
N            1.44580746495732       -1.89537837582515        0.06922785440652
C            0.44033462548508       -1.00909055692103       -0.11748668936971
C            1.05722643751144        0.25638120165148       -0.25430334196487
C            0.20007626212921        1.36172730708719       -0.41763915322663
O            0.33196698533054        2.60485216453980       -0.70768536557791
N           -1.22722706194416        0.90603627334908       -0.23628705389600
C           -2.12660246863764        2.02560562283913        0.01424382804794
C           -1.79841458534158       -0.30943445218066       -0.14362332914205
O           -2.99122277909686       -0.51955122215448       -0.01873402539146
N           -0.86981706607817       -1.37446390935716       -0.13569038344892
C           -1.57153747053979       -2.65238205305966       -0.04553722191622
H            4.22754346408317        0.98867418901610        0.82909138811614
H            3.54914441399082        1.98417927825684       -0.71255288026664
H            2.62105358388480        2.06935782610237        0.95842795963236
H            3.49645048398592       -1.91591664175744        0.14296726566811
H           -1.42424764740978        2.87787315113957       -0.02299149746459
H           -2.90044038985061        2.10691966221297       -0.75969593370002
H           -2.58166818875099        1.92365403406028        1.00833944832786
H           -1.46807931555230       -3.17373107875063        0.90882790159927
H           -1.42693564400733       -3.31861462249015       -0.90030623883542
H           -2.61380029751765       -2.28557305635180       -0.07930734965853
H            1.14347246621378       -2.84817811374249        0.21604822842581
25
 energy: 14.941572854372 xtb: 6.6.1 (8d0f1dd)
C            3.22336073001316        1.32250357377034        0.29440639156145
N            2.43044265000291        0.14376030479866       -0.12181101070614
C            2.65741948999650       -1.21139299221394        0.11662614871047
N            1.44920783868385       -1.88771085456362        0.06955519198567
C            0.44973984497376       -1.01949836895317       -0.15406967636411
C            1.01471681058523        0.25374020989185       -0.34729331889042
C            0.15897624013424        1.34817432998103       -0.60720244113809
O            0.43315754448711        2.50250562054891       -0.70391384001268
N           -1.19999229571970        0.93653885550493       -0.28900640107489
C           -2.10993463458552        2.02372764452128        0.04501231041738
C           -1.76384660287455       -0.27634520475732       -0.15822935242632
O           -2.96298011956444       -0.46456913029883       -0.00707902816431
N           -0.87660364004490       -1.37614171396358       -0.17168262212879
C           -1.58715914208053       -2.64562543837150       -0.04503333741723
H            4.18963462158948        1.00213525039716        0.74416456615656
H            3.44294566094544        1.98570817243467       -0.57364113195096
H            2.66696387301904        1.96593474426049        0.99868389147929
H            3.51996520434400       -1.84643654017257        0.15112564732607
H           -1.44947679656001        2.89486315008275       -0.00057178528561
H           -2.91820534110238        2.10401984202477       -0.68660578394417
H           -2.52278548119445        1.87734012672562        1.05819892857948
H           -1.46965059667378       -3.16311042421527        0.90980767994573
H           -1.44108357936057       -3.34077032055021       -0.87806091434804
H           -2.62285502647653       -2.29497756511883       -0.07682868121158
H            1.20025741539842       -2.84534466959143        0.26048246504849
25
 energy: 17.614031658955 xtb: 6.6.1 (8d0f1dd)
C            3.18654916932485        1.32087334963913        0.32675533184419
N            2.41786123430162        0.14863049837844       -0.16219556366235
C            2.65912122125453       -1.18803350904951        0.15647786261241
N            1.46521020369500       -1.88701249115681        0.08591055576060
C            0.45551682240422       -1.03369970754144       -0.19494621537633
C            1.00976943233411        0.23587599455687       -0.41991057656547
C            0.15516789525099        1.33764872150906       -0.70844886458718
O            0.46493828405875        2.48806098883649       -0.88386880164424
N           -1.17417335056669        0.94351359710209       -0.33972896816192
C           -2.07485564981221        2.02318451452873        0.07085522984442
C           -1.74209593963702       -0.27003429500493       -0.18481819266248
O           -2.93871587286212       -0.43050424429746        0.00239397821176
N           -0.87286919023465       -1.38897198048353       -0.21461216295202
C           -1.60518463446481       -2.64753709768474       -0.04800470633253
H            4.21025380569964        0.94037448659013        0.65713939690846
H            3.29053033829883        2.10422157430012       -0.51640629963892
H            2.65690077946152        1.88375180607550        1.20211070951994
H            3.53093612902110       -1.80318012218509        0.16903342239201
H           -1.45251462924106        2.91367569663077        0.02303227567912
H           -2.93602588251569        2.11086835479156       -0.60693210251188
H           -2.43043954253559        1.82763119821365        1.10526955476758
H           -1.49252447033942       -3.14406021294541        0.91870895602705
H           -1.47131258061322       -3.37034805056089       -0.85919760988577
H           -2.63608909206612       -2.28531044069359       -0.08147162400824
H            1.23626018771919       -2.84059002737697        0.32988831056908
25
 energy: 15.763121994784 xtb: 6.6.1 (8d0f1dd)
C            3.13825908862187        1.31037687640742        0.35106799125649
N            2.39055480863659        0.15556379113691       -0.19917879238708
C            2.65365710068064       -1.16280649413158        0.20610035821316
N            1.47723779157626       -1.89074580797632        0.09825360326632
C            0.46066375513127       -1.06020328876321       -0.23572463359329
C            0.99710398159081        0.20069078438245       -0.46824158857228
C            0.13578230431642        1.31185597964188       -0.75005022631678
O            0.50351959846300        2.48139547448764       -1.05840879495157
N           -1.15775590600949        0.95804821815560       -0.36810295957647
C           -2.03805460788938        2.02861079952979        0.09529101512208
C           -1.72438879905665       -0.26290289763760       -0.20783033667973
O           -2.91508600391776       -0.39351384272737        0.00934899132112
N           -0.87478111169689       -1.39257709742446       -0.26107649372018
C           -1.61735630523282       -2.63988769727579       -0.05649686111981
H            4.18105106384587        0.91615541726299        0.56577212220593
H            3.14676902562790        2.16742627009421       -0.41950219927993
H            2.66671080955792        1.76909112875945        1.32636306579102
H            3.55527912384907       -1.73452195339848        0.16198708120392
H           -1.45560156739620        2.93725973548840        0.05486127063419
H           -2.93861749367711        2.11215311741346       -0.52741340000516
H           -2.34677846526510        1.79142489608716        1.13148870079152
H           -1.48905971897804       -3.11243141601755        0.92168795832334
H           -1.48222049215292       -3.38139629710970       -0.84625795302203
H           -2.65116929886853       -2.27834594459180       -0.08951425673018
H            1.29649598617894       -2.84169114962127        0.39261023397263
25
 energy: 16.080394550432 xtb: 6.6.1 (8d0f1dd)
C            3.08980976387030        1.31099277663514        0.38386388320565
N            2.37578321943413        0.16085515345289       -0.22103740795607
C            2.64434207255668       -1.14697930863652        0.25810381288580
N            1.48599786962982       -1.88856032645437        0.11926253003027
C            0.46673082257860       -1.08155028621911       -0.27683091400439
C            0.99791900814515        0.17724072167859       -0.53720600339590
C            0.13233214823482        1.29086973948940       -0.85895238106013
O            0.50970855197738        2.43179439957960       -1.19983432025533
N           -1.15254907314908        0.96694988307481       -0.41377823412342
C           -1.99981534040605        2.03292754252602        0.12995210253459
C           -1.71309227245773       -0.26260428980001       -0.24126216127062
O           -2.89719506427713       -0.37615563550048        0.02538296904993
N           -0.87316467187432       -1.39070990053688       -0.31312721477178
C           -1.62563906980762       -2.62755459170443       -0.06783793406188
H            4.14231684899496        0.93073756439465        0.49331709417476
H            3.01756772536990        2.22436221402793       -0.30962980717157
H            2.67216489225587        1.66255016085175        1.41825914445319
H            3.57028285099356       -1.68718939061162        0.15242637063273
H           -1.43191498646334        2.93721411506388        0.08865449837178
H           -2.94524007359877        2.12174125424388       -0.43251765755260
H           -2.24350145139581        1.76068778238661        1.18017517530135
H           -1.48671277384434       -3.06969556212591        0.92447377051471
H           -1.49802073614221       -3.39057367097477       -0.83707533514294
H           -2.66196810116868       -2.26578028174296       -0.09942558119963
H            1.33607250847953       -2.83254146092584        0.46167749695875
25