25
 energy: 0.000000000000 xtb: 6.6.1 (8d0f1dd)
C            3.23720163006194        1.16630919979326        0.08434469647475
N            2.29877817382611        0.07527477071623        0.03981603040599
C            2.58028210190900       -1.21425402444508        0.03006176031096
N            1.43813958087363       -1.93419271955128        0.00098261760884
C            0.39035688448383       -1.05887472636071       -0.00790371836672
C            0.93510056364412        0.21347819449412        0.01709077491437
C            0.09450143893243        1.40504303904423       -0.00410947031874
O            0.49712751527797        2.54126714362870       -0.00342325688240
N           -1.25076640035757        1.06271879480407       -0.03085478223738
C           -2.21907211982101        2.15522099834493       -0.05001256985998
C           -1.81739487048744       -0.20012725993278       -0.04692818574614
O           -2.99983886758376       -0.37846417018721       -0.07008878229737
N           -0.92618586207120       -1.30210215599479       -0.03682761578324
C           -1.46982264913417       -2.64643102187190       -0.06029820460571
H            3.71247264356769        1.21471455160235        1.06488849150277
H            4.00791497605742        1.03430808813993       -0.67357694370751
H            2.69910007168542        2.09770118228144       -0.09130154882931
H            3.56654120610678       -1.63682992603973        0.04233140067262
H           -1.67107961066214        3.09322851271934       -0.02552706933167
H           -2.82428953597071        2.09428624779827       -0.95318082946668
H           -2.87644029173232        2.07745725625962        0.81450067533302
H           -1.17061996399332       -3.19584890659852        0.83242232437030
H           -1.14560257411436       -3.17511610292205       -0.95688275822323
H           -2.55549792440841       -2.55659984320617       -0.07459039797972
H            1.38130855184625       -2.94313852034425       -0.01389874181052
25
 energy: -5.395003010049 xtb: 6.6.1 (8d0f1dd)
C            3.24423746938670        1.17835034351068        0.08675632736548
N            2.30862486992841        0.09607996870472        0.03775771771831
C            2.60049581483897       -1.23195446675297        0.03009567308892
N            1.42857919666654       -1.93998970972211        0.00086301860611
C            0.39701890576027       -1.05641747196394       -0.00824716754312
C            0.93071080290602        0.22255887292825        0.01528263386319
C            0.10211535914701        1.39593679744817       -0.00523775514732
O            0.49855587614438        2.56187828372438       -0.00461596921903
N           -1.25977979872791        1.05028074574849       -0.03110221384637
C           -2.22018465626233        2.14621210045087       -0.04986142009391
C           -1.82291455465024       -0.20106556932710       -0.04730441922372
O           -3.01953369377822       -0.38347943051035       -0.07041312984611
N           -0.93377053816473       -1.30147275545001       -0.03705732964618
C           -1.47399787791470       -2.64299762501550       -0.06027065512018
H            3.72269049817495        1.22435469272430        1.06871616958531
H            4.01226629303713        1.04392055648553       -0.67636173418598
H            2.69730287690957        2.10293342115403       -0.08859663583297
H            3.57888284501097       -1.65788822814638        0.04275323000024
H           -1.65880795351174        3.07758245577553       -0.02536988157055
H           -2.82553190186847        2.09257733912142       -0.95427844927184
H           -2.87772679798237        2.07594741895422        0.81601035788653
H           -1.17249308531448       -3.19512030567747        0.83186783768574
H           -1.14741055391413       -3.17462158479986       -0.95614100055892
H           -2.55916897430844       -2.55088063432149       -0.07466513922145
H            1.36205424642307       -2.94369661287139       -0.01354616932491
25
 energy: -6.479078141119 xtb: 6.6.1 (8d0f1dd)
C            3.25632957997017        1.19233393109471        0.09081558606890
N            2.32226244048666        0.11095310265944        0.03377624321886
C            2.61656360663817       -1.24920893086027        0.03006732833794
N            1.41564584390321       -1.93820951873570        0.00118576738588
C            0.40263523439132       -1.05047704730729       -0.00949648449094
C            0.93066865770677        0.23272568635084        0.01135896698533
C            0.10952290210682        1.38216722430706       -0.00908428064746
O            0.48280794012979        2.56822465500623       -0.00949963122690
N           -1.27113228072305        1.03282802454107       -0.03236458891989
C           -2.22024737825612        2.13167067646619       -0.04957952865736
C           -1.82808289957339       -0.20598137194520       -0.04813754637102
O           -3.03065744475880       -0.39551435738244       -0.07046291120311
N           -0.94031554089900       -1.29852983026809       -0.03767397113970
C           -1.48118304126781       -2.63607938972150       -0.06011827512337
H            3.74689682878727        1.24534916377069        1.06980292104956
H            4.02257205524132        1.07420649232673       -0.67969775065463
H            2.69900288214186        2.11299315991199       -0.07640548347060
H            3.58671696979691       -1.68880060670546        0.04401623206524
H           -1.63054180849076        3.04630673886644       -0.02513529251712
H           -2.82679142626749        2.08885183428453       -0.95470955736018
H           -2.87775687393270        2.07244947279183        0.81813560751219
H           -1.18184364471981       -3.19227061417593        0.83149593877420
H           -1.15646994048744       -3.17270188688132       -0.95499995712691
H           -2.56610773042255       -2.53508899811371       -0.07475173735003
H            1.33171973643484       -2.93916900810880       -0.01150369899159
25
 energy: -4.724004614135 xtb: 6.6.1 (8d0f1dd)
C            3.27359372463400        1.21311015947258        0.09775344629128
N            2.34372782432804        0.12109289584546        0.02799243331379
C            2.63049022242564       -1.26756719448870        0.02916015312611
N            1.40414502812100       -1.93330867367517        0.00244043802120
C            0.40913809342454       -1.04328187313092       -0.01246589896260
C            0.93902706055524        0.24211959763112        0.00402796016950
C            0.11398966963389        1.36777707960156       -0.01967230437711
O            0.44964474152255        2.57033236552667       -0.02424466410411
N           -1.28302485216085        1.00792595456972       -0.03686730060155
C           -2.21666672645325        2.10974445992942       -0.04936896325166
C           -1.83370246152953       -0.22028117676411       -0.05031441177051
O           -3.03822999171618       -0.42163486360249       -0.07003581907206
N           -0.94184257237707       -1.29769169619178       -0.03935409730926
C           -1.49521202685316       -2.62678445790822       -0.05945972420760
H            3.79164341839773        1.27527157725411        1.06587529915716
H            4.03518420069439        1.14247606061562       -0.68796533697890
H            2.70026341215850        2.13145018572368       -0.04037286418490
H            3.58882264801061       -1.73469146099093        0.04703837431224
H           -1.58115266979127        2.99557311310219       -0.02567805348604
H           -2.82671511532145        2.08188577054335       -0.95344486112037
H           -2.87146903408931        2.06517338924228        0.82212054089743
H           -1.20907861261801       -3.18787190056649        0.83364410372167
H           -1.18280626401794       -3.17152716948418       -0.95410376771966
H           -2.57912293865875       -2.49828800673230       -0.07457670477429
H            1.29156788961683       -2.93197553335046       -0.00509408094247
25
 energy: 16.111965649771 xtb: 6.6.1 (8d0f1dd)
C            3.31277576324134        1.27430861617410        0.11881429303331
N            2.40066281888848        0.15418373732590        0.00953385346043
C            2.67177866424223       -1.31322085719043        0.02751210585915
N            1.37627035358299       -1.91364093170272        0.00739864379766
C            0.42894559163053       -1.02193392592523       -0.02168971933787
C            0.96106751601809        0.27183325916909       -0.01884801053146
C            0.13184384472747        1.32981462591540       -0.05280891940904
O            0.35127938214916        2.57791228657155       -0.07044394030787
N           -1.31393896825910        0.93615572463460       -0.05115337615793
C           -2.19910618424589        2.04457109291649       -0.04871845145024
C           -1.84583548264934       -0.26106350216171       -0.05709701807966
O           -3.05480564861572       -0.49427549250040       -0.06818599868489
N           -0.94411736184428       -1.29566334111093       -0.04501343582053
C           -1.53811237230228       -2.59876447184652       -0.05764604863128
H            3.91002447835384        1.33866285524668        1.05622498083975
H            4.04739825756383        1.32270277473078       -0.71973439134563
H            2.69931256028561        2.19230964225025        0.07302115450303
H            3.59989878074737       -1.85003895628154        0.05710794696306
H           -1.43239523708822        2.84663244509738       -0.02750905286317
H           -2.81599942934891        2.05084008253389       -0.95053116394706
H           -2.84072361258111        2.03210687796775        0.83598596135140
H           -1.29345921014990       -3.17370996777290        0.84041862860704
H           -1.26476584981582       -3.16861390033469       -0.95129890954632
H           -2.61917106030035       -2.38619845482949       -0.07416899152032
H            1.18338707370613       -2.90588161670527        0.01586375536573
25
 energy: 32.017037740009 xtb: 6.6.1 (8d0f1dd)
C            3.36151250091916        1.29736356742089        0.12678016425907
N            2.43879920461866        0.15211100748860        0.01021676913421
C            2.68607603466999       -1.35200025584919        0.02035747716541
N            1.35806225602704       -1.93388211609969        0.00571417051604
C            0.43474859065857       -1.02242060463303       -0.02519752732215
C            0.98017679455077        0.26553769681967       -0.02417065865389
C            0.11885658228155        1.30730452188100       -0.06787822498477
O            0.34507193355231        2.57172424426817       -0.09047071297385
N           -1.32975746376532        0.91272801896371       -0.05929466457456
C           -2.21670256893369        2.02729226055344       -0.04845211426270
C           -1.86234017917179       -0.27968635891240       -0.06073399797050
O           -3.07866618227231       -0.52890535312237       -0.06864460887912
N           -0.94831882415071       -1.30086626399623       -0.04672116969084
C           -1.55476482570880       -2.59523911726609       -0.05558391359484
H            4.00293451091511        1.43255808252453        1.04125927041372
H            4.12038560512558        1.47371566243960       -0.71001475093915
H            2.70909965753333        2.19179042222844        0.11454985195967
H            3.59008513320060       -1.94339054817310        0.05722482219759
H           -1.41210771943417        2.80444210544774       -0.02859667471480
H           -2.84945689063278        2.07380264187477       -0.94422635020783
H           -2.86387746219423        2.05402952824453        0.83781484573783
H           -1.32502314158228       -3.17554516594175        0.84512146661708
H           -1.29486065086814       -3.17264723545593       -0.95040562633020
H           -2.63115711036446       -2.35051946885288       -0.07270091746592
H            1.13343888296217       -2.92026866968039        0.02108697071175
25
 energy: 46.213357063430 xtb: 6.6.1 (8d0f1dd)
C            3.41255770858749        1.32864058192923        0.13701241210755
N            2.47674420614300        0.14951284136636        0.01594664402678
C            2.70131632150159       -1.39154221184322        0.00879458782840
N            1.35254962547805       -1.97251846088679        0.00338172434904
C            0.44114479983878       -1.03214211994527       -0.03086135733319
C            1.00345687879297        0.24658133821927       -0.03021631002483
C            0.10108551047054        1.29127901421410       -0.09507268386201
O            0.39453195299350        2.54584576801467       -0.12235765459077
N           -1.33905676256808        0.91405354215112       -0.07644339613363
C           -2.24310517490694        2.02804805863463       -0.04659647027439
C           -1.87827837806701       -0.28887748165702       -0.06740001560853
O           -3.10089516754022       -0.54042107495706       -0.06991835803587
N           -0.95073142038319       -1.31372186716479       -0.05087346671717
C           -1.57244605572024       -2.60313866897116       -0.05218902592405
H            4.10243779767081        1.52567792134925        1.01836799989644
H            4.17784799860273        1.62663806431837       -0.68708610454571
H            2.72778542331546        2.19087850950256        0.16949305864749
H            3.57514101047351       -2.03390110234875        0.05584706774898
H           -1.46265129279183        2.80280332058803       -0.02822630634726
H           -2.89169029763382        2.09782238123937       -0.93060494642829
H           -2.88639431846984        2.06669569509488        0.84200872921656
H           -1.36304119376296       -3.18322403339350        0.85294667116337
H           -1.33344824447149       -3.18697703999168       -0.94785814434195
H           -2.63939407772240       -2.33150472443723       -0.06898939024020
H            1.10674781810571       -2.94747964885330        0.02792863157047
25
 energy: 62.407089156208 xtb: 6.6.1 (8d0f1dd)
C            3.45308550997019        1.39107416146917        0.15767025044562
N            2.51680316409266        0.16764692588457        0.01358217096073
C            2.72989004521803       -1.42706396782999       -0.00474473808277
N            1.36375442596525       -2.00399531567956        0.00393962865860
C            0.45750575346131       -1.04246381473413       -0.04283658345709
C            1.03102455705536        0.23234344821188       -0.04847038679513
C            0.09867696771848        1.27949573074357       -0.14703643623439
O            0.44146994257442        2.50855965620422       -0.18796415608340
N           -1.34161129589416        0.91565208150112       -0.11080315351376
C           -2.25316748662370        2.02485751844472       -0.04335660589005
C           -1.88127877613931       -0.29936580720768       -0.08137446073244
O           -3.10464713628188       -0.53901077384983       -0.07264795262137
N           -0.94524297266819       -1.33259005644049       -0.06121814311697
C           -1.60625069993516       -2.61138349123604       -0.04635306132951
H            4.21163855060720        1.56882535949273        0.98985446573546
H            4.15530041932239        1.78335498444045       -0.68261691989602
H            2.74521827607027        2.22549244705128        0.29497617368367
H            3.56608345319071       -2.11454918602419        0.06189507308493
H           -1.51201276506487        2.79522486898263       -0.02657884647529
H           -2.91666343024711        2.09283390066667       -0.90980737571971
H           -2.87123483430401        2.03223708632043        0.85714899923713
H           -1.43855907402118       -3.18837762114422        0.86664629128069
H           -1.41251167800861       -3.21258743625629       -0.93930217723625
H           -2.65983287680249       -2.29340417830767       -0.06203034570340
H            1.08477662868050       -2.96377791853128        0.04846218594799
25
 energy: 65.497005523121 xtb: 6.6.1 (8d0f1dd)
C            3.46782295270548        1.48491554516292        0.17997088239347
N            2.53803106015786        0.20314644211651        0.00169782704669
C            2.75274834627382       -1.43709483076492       -0.02266198438039
N            1.41955989801599       -2.03233483843495        0.00450223058277
C            0.47981049377445       -1.06204601298235       -0.05868302508783
C            1.06223393531004        0.21013626752925       -0.07500634054397
C            0.10146587561933        1.29338622418430       -0.21425062348090
O            0.50031772673104        2.44269656625324       -0.28137741532597
N           -1.31821541201706        0.94354868169404       -0.16449031514719
C           -2.24226738889875        2.04463165253033       -0.03991814857371
C           -1.85810516475444       -0.30475216986336       -0.10158694781464
O           -3.06498601052763       -0.48986837528846       -0.07933805739855
N           -0.91961137261732       -1.36699836588179       -0.07690541713500
C           -1.64471517193033       -2.63709067902213       -0.03772539200691
H            4.28796846800046        1.51622250501231        0.94298018885560
H            3.99982113479469        1.89166615846488       -0.68113861083049
H            2.76408477027977        2.27441425968530        0.48110873930685
H            3.54170272153507       -2.14418699296613        0.07991540548398
H           -1.59376431204556        2.83850275418855       -0.02470620424379
H           -2.92168955540736        2.06780377988171       -0.87870662314575
H           -2.81603383484864        1.95214039798519        0.87931404960860
H           -1.53633545606755       -3.19661793768847        0.88521464278928
H           -1.51909442916509       -3.25431418931017       -0.92229298809784
H           -2.67758304833955       -2.27542725154770       -0.05128943268033
H            1.10904844135727       -2.97345098876600        0.08240745597327
25
 energy: 90.209045956645 xtb: 6.6.1 (8d0f1dd)
C            3.49736509736121        1.56280609411317        0.20908169045602
N            2.57906436627050        0.22190015883874       -0.01116002930008
C            2.77558399097547       -1.46893827660641       -0.04480276472476
N            1.45178372187107       -2.05381169658379        0.00056250378325
C            0.50162642120004       -1.07234566347133       -0.07226581956288
C            1.10066660791912        0.19306388197979       -0.09855423487153
C            0.10781228782704        1.28431257062257       -0.26735668432260
O            0.52634806856785        2.39486228255225       -0.38150136405040
N           -1.30358441907222        0.94358261216673       -0.20873858708533
C           -2.23526097854778        2.03908338301238       -0.03914015859148
C           -1.84190311833234       -0.32343020132016       -0.12131080796772
O           -3.03861676088213       -0.48037375161767       -0.08177862487137
N           -0.89802463895444       -1.39166931198014       -0.08965530446262
C           -1.68363009116288       -2.64839407102183       -0.03013844128401
H            4.40812883395051        1.51764851666388        0.89087443435872
H            3.89604204749475        2.10578724442929       -0.69733903945474
H            2.76746030454079        2.30069577073692        0.67977864329415
H            3.51388109349269       -2.23661191827234        0.10729878636027
H           -1.62507602842872        2.84800151526662       -0.02636574216616
H           -2.94265778621851        2.05290545993054       -0.85100621507302
H           -2.77670469180982        1.89789319771525        0.89266607054242
H           -1.63395641753879       -3.20194908737670        0.90229983886927
H           -1.62101732657598       -3.28850586716870       -0.90702694951988
H           -2.70108404598404       -2.22601704539566       -0.04421879636565
H            1.08796812997255       -2.98146719504132        0.11683149215736
25
 energy: 88.000948692196 xtb: 6.6.1 (8d0f1dd)
C            3.45832061432891        1.57753595321881        0.23798248802493
N            2.56924658091525        0.18807051560934       -0.03655879734683
C            2.72276820869002       -1.42911376839774       -0.07611854813289
N            1.52821533086127       -2.00269426081425       -0.02299298645310
C            0.50348026886824       -1.07382664556005       -0.07375451987938
C            1.13655794159254        0.17373532617050       -0.11208031588621
C            0.13533911014274        1.29072854314031       -0.24809743928565
O            0.44540460714074        2.37717819635518       -0.49233527173151
N           -1.22867241870685        0.93594985713665       -0.22750662040798
C           -2.19603639706077        2.01506139976152       -0.03842695825491
C           -1.77635901633882       -0.34965949731194       -0.14095088101579
O           -2.93714546367823       -0.45314600836429       -0.07436497028373
N           -0.84529350542872       -1.39968789952239       -0.09702201238062
C           -1.69362526864775       -2.65322335504583       -0.02883458217388
H            4.38851506544390        1.43703538582953        0.81685406620062
H            3.70157973660639        2.21577324402477       -0.68391191553820
H            2.78224493450225        2.23682705031090        0.80154595846476
H            3.43997824992247       -2.24305389760151        0.16416972133951
H           -1.58404408524298        2.93808440323341       -0.02567847014120
H           -2.95791773676685        2.02869822070963       -0.82189107437171
H           -2.72597365426585        1.84766640753546        0.89015109616528
H           -1.68281185317443       -3.20237986356009        0.90447221373749
H           -1.67570720951730       -3.30693776521419       -0.88930839579073
H           -2.71140457187436       -2.20632805472499       -0.04582548586682
H            1.11555519962404       -2.95326488474659        0.14751759715577
25
 energy: 91.165647226886 xtb: 6.6.1 (8d0f1dd)
C            3.44479452736774        1.60097882941654        0.26911317704922
N            2.58280762217514        0.16846018829077       -0.04646438341923
C            2.73720103895356       -1.42967187880726       -0.10138171735291
N            1.53161931613761       -2.00702456658960       -0.02095629729887
C            0.50381726450016       -1.08432058399896       -0.08354241123184
C            1.15308397821889        0.15874091160981       -0.12978816130780
C            0.16285750747229        1.28054916111881       -0.29290909597270
O            0.48173717256564        2.40173112890235       -0.64567560134215
N           -1.19682162397811        0.91998228422076       -0.24699243933541
C           -2.18422979791717        1.97669284332442       -0.02822114350219
C           -1.76344186441797       -0.35493715783347       -0.15710018527382
O           -2.95348846570494       -0.44713373764327       -0.05873487098085
N           -0.84787293061542       -1.41053421537503       -0.11164224251330
C           -1.73027267718088       -2.64814732277562       -0.02895664887568
H            4.47050922732284        1.44975565024149        0.76171765169328
H            3.63631924082471        2.32886224724140       -0.64597726585278
H            2.80164252531440        2.25126994472421        0.95672543306054
H            3.45151681856494       -2.24540394930336        0.18086785090648
H           -1.60981983074243        2.91181298240647       -0.01733328800484
H           -2.96133027176809        2.00267138435455       -0.79807082794745
H           -2.68140621174270        1.79648258345404        0.92117725044498
H           -1.75416108429558       -3.19985107462979        0.91302896794543
H           -1.75193322352502       -3.32668382155954       -0.88542141270885
H           -2.73681439859071       -2.15978272313028       -0.04653771952065
H            1.12590080899693       -2.94547050548730        0.17010927748860
25
 energy: 75.458515043167 xtb: 6.6.1 (8d0f1dd)
C            3.37165027389917        1.57861919681510        0.29945173539831
N            2.55596493545255        0.13020106187930       -0.06827280465894
C            2.74916705830590       -1.38997577122306       -0.11260123594784
N            1.51327122965124       -1.99120604825329       -0.01007565381452
C            0.49315016735575       -1.09036604627690       -0.09945306283285
C            1.14030854381233        0.16133334158477       -0.17139122668489
C            0.21204819503348        1.28495575659778       -0.39043937900261
O            0.51059861746792        2.43124985891971       -0.75357203278173
N           -1.15050101258234        0.90705664908295       -0.25855611694137
C           -2.13891705691642        1.94175566336187       -0.01076891686755
C           -1.73092540831089       -0.33662335431806       -0.16787212659400
O           -2.96151685057496       -0.42285154932335       -0.04250653970989
N           -0.86378375835609       -1.41869491316303       -0.13001340422873
C           -1.76115538157694       -2.63571367860969       -0.02971365566857
H            4.44716166609138        1.41706120814503        0.70632889817874
H            3.52209342767479        2.33248447425897       -0.59160041070790
H            2.80652082067165        2.23109160475171        1.07796581074634
H            3.49588477208978       -2.13452272170869        0.20348890921384
H           -1.60984539630421        2.86397960327055       -0.00616424969651
H           -2.92577125071887        1.95483534365850       -0.76472770776874
H           -2.59536195445890        1.73349211802484        0.96523193391891
H           -1.79467121585705       -3.18446603344780        0.91742750418285
H           -1.80117080544732       -3.33254408945883       -0.87825869796481
H           -2.75360543024289       -2.12838273350825       -0.04860380548066
H            1.18162048177672       -2.91374033888794        0.19173013186034
25
 energy: 67.527878728483 xtb: 6.6.1 (8d0f1dd)
C            3.30586501325282        1.55223820971841        0.33772682077821
N            2.53089547395790        0.09436584633056       -0.09499262326900
C            2.75435491677945       -1.32842698551796       -0.11504098045852
N            1.51278545977754       -1.96730346930900       -0.01013021660301
C            0.48839568974231       -1.09862982674341       -0.12272358079070
C            1.12832022399291        0.16346352630675       -0.23059382615082
C            0.25555487538108        1.28363023774755       -0.50649107073626
O            0.52925337705705        2.43668210088879       -0.88886283857210
N           -1.09945167425489        0.89441133538628       -0.27955238030651
C           -2.09019939651817        1.91192430840042        0.01810675212824
C           -1.68787403175573       -0.32099459821578       -0.17274758237039
O           -2.93252263820992       -0.39399770365545       -0.04954797205420
N           -0.86936502450341       -1.43522464171305       -0.15089314345912
C           -1.79790458160920       -2.62500164121476       -0.03182745196521
H            4.41399736687771        1.38394012979807        0.63058003529353
H            3.36963186742835        2.35314929306434       -0.52127843573272
H            2.81096084530555        2.15838431247067        1.21340664017851
H            3.52871971754882       -2.00966415312236        0.24351041613218
H           -1.60141066540224        2.84789694413737        0.01450822600182
H           -2.91175839884794        1.90586714909552       -0.70383860971631
H           -2.50215252248048        1.66593690612649        1.01495372719849
H           -1.84206824633133       -3.16515564671418        0.91946281183810
H           -1.86084507559229       -3.33616109050211       -0.86704013882503
H           -2.77299638287633       -2.08652683154748       -0.05184492805851
H            1.25202847921620       -2.89577510904350        0.23218424566654
25
 energy: 59.160122038519 xtb: 6.6.1 (8d0f1dd)
C            3.25071645579893        1.52417724923527        0.37428598462786
N            2.50559507953282        0.08305044963355       -0.12461047771547
C            2.76181089300902       -1.25862283818016       -0.09051595702827
N            1.51692735196386       -1.95020270528227       -0.00850166791213
C            0.48937269259897       -1.10998057635683       -0.15502079893951
C            1.10480659435847        0.16944812032492       -0.30143400713025
C            0.27957794439235        1.27923472667722       -0.62725619429443
O            0.54306763567225        2.42081871562090       -1.00730726112454
N           -1.06824393117073        0.88946606177421       -0.30581806552468
C           -2.04635353454701        1.89916916705624        0.05684847188479
C           -1.65557162596762       -0.30345045273968       -0.18620776885495
O           -2.89836392346724       -0.36848735206401       -0.06193218845471
N           -0.87455038605902       -1.45501885595635       -0.17675859062260
C           -1.82990735749439       -2.61473556641169       -0.03527458800023
H            4.35380433021426        1.35705322173162        0.56270976058652
H            3.22034619511414        2.33912953129782       -0.43905973823279
H            2.81452936485094        2.05666973644343        1.30458388647637
H            3.56579660888086       -1.87306547572086        0.28097503737604
H           -1.57758488693502        2.84486829068987        0.04560766045748
H           -2.90215488745747        1.86700491982509       -0.62767671939201
H           -2.41222772379314        1.61427856426523        1.06629158977388
H           -1.87512586011388       -3.14119214253870        0.92067149125489
H           -1.90861194562715       -3.33370934980170       -0.85700845805472
H           -2.78619519503721       -2.05118914492246       -0.05699947202117
H            1.34075477921871       -2.89568569242848        0.27644196701188
25