25
 energy: 0.000000000000 xtb: 6.6.1 (8d0f1dd)
C            3.23720163006194        1.16630919979326        0.08434469647475
N            2.29877817382611        0.07527477071623        0.03981603040599
C            2.58028210190900       -1.21425402444508        0.03006176031096
N            1.43813958087363       -1.93419271955128        0.00098261760884
C            0.39035688448383       -1.05887472636071       -0.00790371836672
C            0.93510056364412        0.21347819449412        0.01709077491437
C            0.09450143893243        1.40504303904423       -0.00410947031874
O            0.49712751527797        2.54126714362870       -0.00342325688240
N           -1.25076640035757        1.06271879480407       -0.03085478223738
C           -2.21907211982101        2.15522099834493       -0.05001256985998
C           -1.81739487048744       -0.20012725993278       -0.04692818574614
O           -2.99983886758376       -0.37846417018721       -0.07008878229737
N           -0.92618586207120       -1.30210215599479       -0.03682761578324
C           -1.46982264913417       -2.64643102187190       -0.06029820460571
H            3.71247264356769        1.21471455160235        1.06488849150277
H            4.00791497605742        1.03430808813993       -0.67357694370751
H            2.69910007168542        2.09770118228144       -0.09130154882931
H            3.56654120610678       -1.63682992603973        0.04233140067262
H           -1.67107961066214        3.09322851271934       -0.02552706933167
H           -2.82428953597071        2.09428624779827       -0.95318082946668
H           -2.87644029173232        2.07745725625962        0.81450067533302
H           -1.17061996399332       -3.19584890659852        0.83242232437030
H           -1.14560257411436       -3.17511610292205       -0.95688275822323
H           -2.55549792440841       -2.55659984320617       -0.07459039797972
H            1.38130855184625       -2.94313852034425       -0.01389874181052
25
 energy: -4.074018062776 xtb: 6.6.1 (8d0f1dd)
C            3.24860721388659        1.22959511220858        0.07544971196366
N            2.32143941390805        0.11879104472292        0.02058562958773
C            2.59656482165561       -1.21817173612857        0.03505331115937
N            1.43167049735734       -1.95172353031613        0.01148451124563
C            0.39165962559687       -1.08163002175057       -0.00274590730252
C            0.93494829482666        0.20024155724612        0.01616579826195
C            0.11282708335252        1.36483485747017        0.00499861465875
O            0.52057585970342        2.52501728930766        0.00889031524246
N           -1.24818217722409        1.02706695785061       -0.02594119515979
C           -2.18932004504886        2.13628087135429       -0.04757553629504
C           -1.82456527001887       -0.21760000625986       -0.04769450505859
O           -3.02312689920654       -0.38587708867600       -0.07774483005400
N           -0.94548206021763       -1.32696476176785       -0.03473670120243
C           -1.51856208983121       -2.65918922586541       -0.06541233730438
H            3.70361157595489        1.28708038051851        1.06996532972748
H            4.01531737249405        1.10125682548287       -0.70072862439028
H            2.73533268335921        2.17918883084251       -0.08987024928830
H            3.57007696105639       -1.63362012162137        0.05845984281751
H           -1.60881167157662        3.05627762827408       -0.01920611968201
H           -2.78829546993085        2.09245410421089       -0.95614237441325
H           -2.84915540696694        2.07460186409096        0.81642892591693
H           -1.23433557326435       -3.22801775503474        0.82178674770110
H           -1.21287064825597       -3.19529624656906       -0.96591864025403
H           -2.60365681763112       -2.54535436222970       -0.07668085919041
H            1.37594739395766       -2.96021386518889       -0.00183696254026
25
 energy: 8.394461492638 xtb: 6.6.1 (8d0f1dd)
C            3.26812530583652        1.34729816865515        0.05703960139226
N            2.36256653126972        0.19566705048037       -0.02884548405967
C            2.61371877757689       -1.21255821559387        0.04590815656690
N            1.42658440357743       -1.97749344607705        0.03592962714939
C            0.39185970651187       -1.12980515675123        0.00995299845006
C            0.93531404516780        0.16687874315917        0.01306961253543
C            0.14676236428199        1.28303619040958        0.02239652594847
O            0.55514428346585        2.46737268070972        0.03698329163472
N           -1.24164168709083        0.96248083965357       -0.01562989685774
C           -2.12907818518645        2.10465932317443       -0.04227127855470
C           -1.82931973126903       -0.25223192590798       -0.04907686570561
O           -3.04501302622962       -0.39865535030761       -0.09410384610874
N           -0.97733557941569       -1.37664736878136       -0.02833566707597
C           -1.61484720716681       -2.68507057379361       -0.07573314866011
H            3.68077081317697        1.42520679177499        1.07661900530718
H            4.02846193188554        1.23386905476912       -0.74914169655379
H            2.80121900401886        2.33277807287054       -0.09116876732544
H            3.56989509431816       -1.61415998396124        0.09444098906426
H           -1.48720125318458        2.98912962519696       -0.00570861710811
H           -2.71545170387213        2.09284584983179       -0.96041520783136
H           -2.79455802818053        2.07280238547611        0.81882088257018
H           -1.36675666848453       -3.29502435742154        0.79936518932763
H           -1.35363680493953       -3.23592867799114       -0.98549309353921
H           -2.69855849931991       -2.51807972447386       -0.08016409121586
H            1.38519078118828       -2.98934139292900        0.02259567679717
25
 energy: 40.306674397776 xtb: 6.6.1 (8d0f1dd)
C            3.28889333055851        1.47436599576984        0.03868297317232
N            2.40866984128982        0.27276459933048       -0.08762055370664
C            2.62509914984226       -1.20238871944881        0.05452681695620
N            1.42817340681845       -2.00838031079888        0.06226645540227
C            0.39026292516631       -1.18780870138604        0.02208835086501
C            0.94154630669392        0.12227136692075        0.00705896862942
C            0.17654461726510        1.20434304030545        0.04184720245116
O            0.58546318688783        2.40204343842780        0.07024816667502
N           -1.23431974508358        0.90041510105420       -0.00288942722522
C           -2.06444820388256        2.07550863251456       -0.03649610261821
C           -1.83260455668375       -0.29045225009375       -0.05117041237059
O           -3.06101066749932       -0.41255847011834       -0.11131481062454
N           -1.00854986914042       -1.43372620255334       -0.02098978950299
C           -1.72061154315836       -2.71532329355363       -0.08613255165130
H            3.65257560686784        1.57291921707378        1.08343915173130
H            4.04239347857752        1.37663732191375       -0.79727472980268
H            2.87294771470906        2.49834227591821       -0.09651503766049
H            3.57026005255605       -1.58856398697607        0.13807058685884
H           -1.36079901074471        2.92043086358734        0.00892023645449
H           -2.63478070757811        2.09506108873282       -0.96477152009392
H           -2.73496719527356        2.07385060133768        0.82046242654114
H           -1.51479227724842       -3.36794098385049        0.77486731913885
H           -1.51188248314192       -3.27940194484667       -1.00653713651875
H           -2.80100006492290       -2.48749393809942       -0.08180969690676
H            1.40915137506121       -3.02588613898920        0.04807700995340
25
 energy: 83.475197021319 xtb: 6.6.1 (8d0f1dd)
C            3.31898237007253        1.60353824244138        0.02759587975951
N            2.46445696243149        0.34755957543478       -0.15415460328188
C            2.61921323016368       -1.19050051602046        0.05647908580899
N            1.42929138921925       -2.04654458735108        0.08645508203839
C            0.38117472232830       -1.25185574696762        0.02969283607700
C            0.95727113528860        0.06516657855060       -0.00376726736551
C            0.19700791202535        1.14101593631208        0.06236481199977
O            0.60962981441533        2.33081373531651        0.10444156110833
N           -1.22887536243023        0.85264581910286        0.01214882667524
C           -2.00601800982969        2.05374250196781       -0.03149313955629
C           -1.83646785366092       -0.32530835623079       -0.05441365905013
O           -3.06873055235627       -0.41987821704749       -0.12622455297780
N           -1.04073315961883       -1.49194578092083       -0.01491580208378
C           -1.82072565894645       -2.74804486098769       -0.09395347345034
H            3.62381054704069        1.71074570248866        1.09595932715298
H            4.05742015844456        1.50581273281654       -0.84336025141503
H            2.95609417473899        2.66577987860494       -0.10250195602219
H            3.56146911697787       -1.56066340964146        0.18720478802415
H           -1.25732474762555        2.86125696254410        0.02112346075566
H           -2.55901040706527        2.09639905522348       -0.96746147567146
H           -2.67939981718014        2.07746158685457        0.81987590005760
H           -1.65192892777547       -3.43103759018212        0.75261599508397
H           -1.65889435027337       -3.31710341818555       -1.02293711263147
H           -2.89382663338692       -2.46781195691542       -0.07997604551280
H            1.43832861493874       -3.07221526503573        0.06623568062442
25
 energy: 128.600314092155 xtb: 6.6.1 (8d0f1dd)
C            3.35997187368153        1.72611183473108        0.03001649953962
N            2.53106041876695        0.41121443092444       -0.22452638662989
C            2.57557386968800       -1.17364497663585        0.04863057055895
N            1.42674089996894       -2.09184274233937        0.10834823263688
C            0.35366279408115       -1.31451252998813        0.02931163398707
C            0.98298326192550       -0.00568117242320       -0.01927713909033
C            0.20569219386496        1.10479849593267        0.07908183667323
O            0.63374159234826        2.24431370275036        0.13560017973046
N           -1.21816484642337        0.83097386099022        0.02921136569846
C           -1.96025374268579        2.04365487384500       -0.02781684688307
C           -1.84295580667199       -0.35265179457656       -0.05782222108853
O           -3.06194765347786       -0.41345320162692       -0.13713145255551
N           -1.07213376073702       -1.54365668691730       -0.01263721796493
C           -1.89691527758456       -2.78050349771953       -0.09754568523563
H            3.59694725614515        1.81589573795502        1.11201439151374
H            4.07005940659226        1.59782500615922       -0.88091671882642
H            3.03926509538076        2.81533937364807       -0.10887701189691
H            3.52880041518361       -1.52381468019706        0.23964409160663
H           -1.20094323055049        2.82271784850782        0.02904515002115
H           -2.49930873910682        2.09524374845766       -0.96587778869321
H           -2.63456090181544        2.08332329587326        0.81654333697147
H           -1.75126616210174       -3.46912192332564        0.73611521824106
H           -1.76510302690530       -3.33843448862743       -1.03039437408713
H           -2.95607846604304       -2.46822230740734       -0.07457901436468
H            1.46734720441264       -3.12684360581840        0.07087324628484
25
 energy: 174.522534366285 xtb: 6.6.1 (8d0f1dd)
C            3.38737516711082        1.84249388538312        0.02468989067839
N            2.58143202522542        0.46318322460683       -0.28705664465430
C            2.52695621215834       -1.14885437827427        0.04176539914622
N            1.42418506370469       -2.13445628874394        0.12485770997249
C            0.32154932537999       -1.36543689875351        0.02193556444651
C            0.99091603054094       -0.06772334218181       -0.03607578531242
C            0.22696466512876        1.04954398211859        0.08158831805259
O            0.69170146454834        2.15734745335851        0.17712572889381
N           -1.18340803754503        0.79519990822979        0.04295128303203
C           -1.91075617188863        2.02717260158976       -0.02291781834374
C           -1.85023106464479       -0.38335565021443       -0.05569720077705
O           -3.06535859411321       -0.40275254933897       -0.14929999651712
N           -1.09859464061843       -1.58885538859659       -0.01465063521805
C           -1.96384669740609       -2.80942184532375       -0.09935137330632
H            3.56283415597274        1.91226809703323        1.11929988285509
H            4.09038865718220        1.68619551257602       -0.89967211843905
H            3.11263791840013        2.95699923902835       -0.12097875909430
H            3.47686975494367       -1.46392594379351        0.29580205771622
H           -1.14744535026585        2.79665066392024        0.03773635390457
H           -2.44454872280168        2.09180954972030       -0.96517094912864
H           -2.59374156003609        2.08890080867271        0.81653545154013
H           -1.83770546678195       -3.50971596556933        0.72688756543451
H           -1.86378356062973       -3.36201424640694       -1.03919301083790
H           -3.01379291338660       -2.46904962446886       -0.06405788247278
H            1.49161700775829       -3.17317420239943        0.06998086457645
25
 energy: 217.606792772514 xtb: 6.6.1 (8d0f1dd)
C            3.43611556209947        1.95761398451549        0.02617008996737
N            2.65960938115068        0.50515157267215       -0.36844974336948
C            2.42329017486100       -1.11412484120075        0.03088331705034
N            1.40366357579637       -2.18395774692671        0.14694721574804
C            0.27066001517206       -1.41435837622943        0.01713692999111
C            1.00704927135746       -0.15088778746090       -0.04422282847416
C            0.23742802328823        1.01248251630105        0.08695390927890
O            0.74208667806803        2.07478806933308        0.22061207642212
N           -1.13956998115927        0.77801643747865        0.05128680880058
C           -1.87770780300067        2.01536655832070       -0.02269328399903
C           -1.85569521298337       -0.40481550900858       -0.05401025801772
O           -3.05189855039706       -0.37883444297029       -0.15644668972800
N           -1.11950137937249       -1.61964722605214       -0.01710260334750
C           -1.99863121600555       -2.83069080124768       -0.09912456011560
H            3.54117777721947        1.96414980273308        1.12455761443162
H            4.10769501393436        1.73490887615140       -0.92313648712520
H            3.18631585487742        3.07812380095343       -0.11902580288045
H            3.37626065819529       -1.38943091895053        0.35402515337091
H           -1.13032277582093        2.78969419219468        0.04184223627025
H           -2.41341765078092        2.07979283249997       -0.96387152458685
H           -2.56695145110705        2.08224693884192        0.81116744989840
H           -1.87421523616346       -3.52425822148606        0.72370053973880
H           -1.90325513622093       -3.36684064687284       -1.03919497951832
H           -3.03729707999730       -2.48268998704019       -0.05846299590948
H            1.48932615492540       -3.22277047437735        0.05749231225070
25
 energy: 244.986936431516 xtb: 6.6.1 (8d0f1dd)
C            3.48355474193112        2.06834876323318        0.02042426077445
N            2.74514318023450        0.56075696121744       -0.44674417541254
C            2.32770587458608       -1.08024833814694        0.03887965706830
N            1.37673992158716       -2.23347576441075        0.16818889229946
C            0.23225395373414       -1.46419972878377        0.02055845323223
C            1.02648041272076       -0.22997382774307       -0.03049282251039
C            0.25899910696271        0.96578114674327        0.09986099211548
O            0.79109982266786        2.00859872252437        0.25970726652937
N           -1.10615449351029        0.75701547156875        0.05231894249144
C           -1.84781248595533        2.00229373401898       -0.02342203108336
C           -1.85873005159412       -0.42240128727483       -0.05387833060633
O           -3.04869881903126       -0.35777585423832       -0.16592048138304
N           -1.14183590795879       -1.64724140370949       -0.01747409535758
C           -2.03342985097268       -2.84946309773452       -0.10124372545055
H            3.52314891520265        2.01732925309945        1.12986807402013
H            4.12140942105932        1.78597141453899       -0.95488279955593
H            3.25760061556702        3.19364931068039       -0.11640979237960
H            3.28035867400795       -1.32296486147974        0.39723572202151
H           -1.10758090199356        2.78165621291778        0.04366214842092
H           -2.38644047366850        2.06872988393261       -0.96341840876742
H           -2.54306226977933        2.07178434164629        0.80628345662543
H           -1.90830722811249       -3.54389461666605        0.71928631029498
H           -1.94119509446030       -3.37899452104325       -1.04363935516929
H           -3.06724626083046       -2.49053676894447       -0.05629860303445
H            1.47821386554210       -3.27171654377413        0.04458434096411
25
 energy: 253.039956217066 xtb: 6.6.1 (8d0f1dd)
C            3.53405135376362        2.15924867043687        0.01802495798485
N            2.84458826607360        0.62834370047653       -0.51465165682985
C            2.22004203298754       -1.04639828315864        0.06954043706599
N            1.34570186283188       -2.28387486962300        0.18158618074111
C            0.19701769789010       -1.51088297297112        0.02227597780079
C            1.05543539651483       -0.30264208930586        0.00929664560463
C            0.27990919834254        0.93279978656341        0.11675991503717
O            0.81652916798178        1.95600099445092        0.28021855643965
N           -1.07955546527045        0.74514257045149        0.04953239851647
C           -1.82833606847191        1.99370341650390       -0.02463998102018
C           -1.85988317148758       -0.43517716463506       -0.05451313319670
O           -3.04038317251603       -0.34332728929439       -0.17162156912773
N           -1.15917614274798       -1.66756237355697       -0.02011578920494
C           -2.05392531667135       -2.86286153922939       -0.10511339721306
H            3.51486980148256        2.05219786092952        1.13058927375584
H            4.12730490136853        1.80735674933642       -0.98847186326007
H            3.31593784740991        3.27383536030906       -0.11516124544819
H            3.18508880241829       -1.25668572184557        0.42217592328547
H           -1.09872358314128        2.77777638977473        0.04481646269117
H           -2.37210036929435        2.06304153732247       -0.96219374876837
H           -2.52931818650306        2.06389859611814        0.80202868662401
H           -1.92470602648271       -3.55372854865650        0.71407077775081
H           -1.95721584943540       -3.38470179062324       -1.04826987948105
H           -3.08294685519391       -2.49879687885439       -0.05934486227085
H            1.46200854608709       -3.31767750874721        0.03021482867037
25
 energy: 295.559830002143 xtb: 6.6.1 (8d0f1dd)
C            3.59431836073042        2.23734989925804        0.02099248821392
N            3.05800052503207        0.75914485215599       -0.60688642063967
C            2.05047140219547       -0.99864090307066        0.15815558782867
N            1.29566428821813       -2.36200579471417        0.16573153257500
C            0.17183472150604       -1.57212591797482        0.01301438326485
C            1.10761707431314       -0.40317988679464        0.11192045947967
C            0.31898817481920        0.89887804465876        0.13507289387584
O            0.81178440150181        1.96306239754575        0.27553547535292
N           -1.06156544806527        0.73977773351467        0.02209220035377
C           -1.83265817841960        1.98838404564818       -0.02552517731271
C           -1.85318540747715       -0.43565162070060       -0.05548047078411
O           -3.03732181836123       -0.34020447224776       -0.16802288033555
N           -1.16585218468582       -1.66609439918569       -0.02755407356159
C           -2.04718535791432       -2.85587317022435       -0.10854981977011
H            3.50453322817111        2.04513477388746        1.12881840700620
H            4.11582401009859        1.77998626736822       -1.01404726328332
H            3.33199116807062        3.27480994734500       -0.10692036337915
H            3.07259251109469       -1.17301678280408        0.40990985198392
H           -1.10346901392711        2.79124377181156        0.04275755335270
H           -2.38700786630990        2.06184933501972       -0.96196740445998
H           -2.53877120792410        2.05348541488541        0.80416431288743
H           -1.90102259594196       -3.55143475302996        0.71657797307074
H           -1.93340050343205       -3.38849724205972       -1.05423514171909
H           -3.08301014103156       -2.49700892044150       -0.06579521772594
H            1.42304452567506       -3.36034401767869        0.01727500987294
25
 energy: 222.973134153731 xtb: 6.6.1 (8d0f1dd)
C            3.55620482118825        2.21171557878611        0.01700286050341
N            3.12678747905540        0.79763429344241       -0.59813669387802
C            2.11738537971360       -1.04071236295812        0.18002133433965
N            1.29976602350388       -2.37713308909734        0.16100422589738
C            0.19875401983524       -1.57354802458964        0.00158527780885
C            1.03685646055622       -0.37630104707092        0.12640385363846
C            0.31941045587487        0.88810815251560        0.15249208532592
O            0.79465165720664        2.03688393745872        0.26154614734211
N           -1.09259107716012        0.73503042261583        0.01177183913566
C           -1.84614624324972        1.98915560595043       -0.02413129467097
C           -1.84352721504423       -0.41646633066401       -0.05931516658717
O           -3.06184330807191       -0.35083698269012       -0.16441262876355
N           -1.16922472887259       -1.64911727541558       -0.03145287335788
C           -2.04300264410327       -2.83990795468810       -0.10847477415347
H            3.49794106350854        2.03193522824815        1.12404553854930
H            4.08567723237169        1.75158763362024       -1.01029798405367
H            3.32895875445033        3.25406667947359       -0.10087369676560
H            3.13823980178267       -1.20463215457912        0.38616049474165
H           -1.09587745990857        2.80319505792952        0.04117621746781
H           -2.39126556995843        2.06137947803152       -0.96704931533143
H           -2.54502297643505        2.05112118670545        0.80865836131160
H           -1.89189093277349       -3.55371848993614        0.72280384925533
H           -1.92379383514224       -3.39471755988966       -1.05825857273947
H           -3.09369768095002       -2.49695605473886       -0.06898374001750
H            1.40946519055860       -3.34873732628785        0.02374855114890
25
 energy: 166.482562714517 xtb: 6.6.1 (8d0f1dd)
C            3.55776043613020        2.19421947523556        0.05346501136923
N            3.31671708029361        0.94742342712621       -0.58443034031438
C            2.10882789102841       -1.06569650193950        0.21678455736625
N            1.27039342081269       -2.39197761400109        0.16799190936737
C            0.17540176848298       -1.58648508611691        0.02010454870131
C            0.94806283078613       -0.36972284077584        0.16166314222058
C            0.31960376837859        0.86974064262235        0.15198710435931
O            0.79083595698092        2.03236024927885        0.21319315071178
N           -1.10965455722425        0.73936682869007        0.00854480997532
C           -1.85233291754159        1.98887676726343       -0.02295454512857
C           -1.84068249419879       -0.39612938300592       -0.06355988148414
O           -3.06965480404601       -0.35836564169065       -0.15668177739023
N           -1.19292693657326       -1.64586670419590       -0.02924916450784
C           -2.03875337158616       -2.83836965043549       -0.11533824087591
H            3.48294171910654        2.03422518165222        1.16193100216798
H            4.04539622293268        1.65450839017835       -1.06589381678213
H            3.38557566650260        3.26558973606336       -0.09546590151041
H            3.14036545262325       -1.18909049883243        0.33396125610007
H           -1.11894191745893        2.81076867411301        0.04178764885024
H           -2.39950502645858        2.06009155879477       -0.96101589051426
H           -2.54613252191418        2.04246012211600        0.80888245487137
H           -1.87089500856125       -3.54183119796117        0.71716000477583
H           -1.89481421389734       -3.38929430407815       -1.06051842810125
H           -3.09108163069123       -2.51662669226137       -0.08208146611116
H            1.39570785402923       -3.36114633566762        0.00676674803097
25
 energy: 137.841405619859 xtb: 6.6.1 (8d0f1dd)
C            3.54111443233914        2.14952577718686        0.14121326281220
N            3.61811325946118        1.19665066759022       -0.55754267865070
C            2.10020175062264       -1.12991601553925        0.23189189288416
N            1.22325768028561       -2.39789011328570        0.16987323112348
C            0.13426104902706       -1.60449797643750        0.03872234977292
C            0.82938898897234       -0.35597230327487        0.16557720409924
C            0.32014980191184        0.86708386997572        0.13938493011374
O            0.80102470524336        2.00480963562232        0.19557613476245
N           -1.11813542306719        0.74738719016988        0.01136784859468
C           -1.85504559791548        1.98846594223598       -0.02396583225706
C           -1.83780765008806       -0.37335120208562       -0.06973968489027
O           -3.07290865206608       -0.36865346076497       -0.15427934570462
N           -1.21428341034453       -1.65251143018352       -0.03008074694391
C           -2.03280753406460       -2.84502980300701       -0.12081447240417
H            3.43727861458186        2.04773854698969        1.22961173387177
H            3.98931170360185        1.54023506962924       -1.20093628434179
H            3.42976011446232        3.25993203267755       -0.08920547883743
H            3.13459539913378       -1.17211899035634        0.29433196739555
H           -1.14109512308399        2.80833489230080        0.04228686068315
H           -2.41012640922811        2.06050387213853       -0.95596007848476
H           -2.55162706867127        2.03640595651068        0.80652889591706
H           -1.84971779706325       -3.53012806264015        0.71073440335071
H           -1.87051203462466       -3.38369517160258       -1.05941564379007
H           -3.07946729823744       -2.52708420616185       -0.08926769887619
H            1.38729116674799       -3.37719611551600        0.00114112594716
25
 energy: 147.547495418758 xtb: 6.6.1 (8d0f1dd)
C            3.54388078848514        2.12486487426572        0.20600567680863
N            3.70251301045477        1.25066649064160       -0.40132093396849
C            2.09702614212182       -1.23422029353689        0.24496088742696
N            1.18755326948729       -2.38907164911163        0.17338034083689
C            0.08315051748952       -1.61632973512765        0.07383510925564
C            0.77507886773507       -0.35749841845593        0.17061539794458
C            0.30581587965216        0.90150689557513        0.11916542610011
O            0.82033910610617        1.93445474633214        0.18654640230313
N           -1.10241159293703        0.76028769342942        0.01891498057195
C           -1.84801237222596        1.99639434226796       -0.03214988602116
C           -1.85690738267864       -0.37126120326068       -0.07250933827405
O           -3.06529760645423       -0.36310306597952       -0.16036791312950
N           -1.22330299678536       -1.67394202492862       -0.03255927346735
C           -2.03781314479163       -2.86337863817280       -0.13001344696434
H            3.43164151509952        2.04967924718842        1.25614715591365
H            4.07313672335983        1.66212569626532       -1.43363174855428
H            3.43239099266016        3.27332802829513       -0.06411688039138
H            3.11340018507145       -1.17240870136983        0.28708139464855
H           -1.15765091463927        2.80152160010166        0.04032055522725
H           -2.41536798048754        2.06603413801866       -0.95685000689471
H           -2.55319751330353        2.03694307665260        0.79899431139129
H           -1.84654595572616       -3.51641967792210        0.69781233700539
H           -1.85963697044453       -3.37205235392745       -1.05686670852906
H           -3.06805899855701       -2.53272239036613       -0.10079558359712
H            1.38049109924427       -3.40637007470243       -0.00556435949528
25