25
 energy: 0.000000000000 xtb: 6.6.1 (8d0f1dd)
C            3.23720163006194        1.16630919979326        0.08434469647475
N            2.29877817382611        0.07527477071623        0.03981603040599
C            2.58028210190900       -1.21425402444508        0.03006176031096
N            1.43813958087363       -1.93419271955128        0.00098261760884
C            0.39035688448383       -1.05887472636071       -0.00790371836672
C            0.93510056364412        0.21347819449412        0.01709077491437
C            0.09450143893243        1.40504303904423       -0.00410947031874
O            0.49712751527797        2.54126714362870       -0.00342325688240
N           -1.25076640035757        1.06271879480407       -0.03085478223738
C           -2.21907211982101        2.15522099834493       -0.05001256985998
C           -1.81739487048744       -0.20012725993278       -0.04692818574614
O           -2.99983886758376       -0.37846417018721       -0.07008878229737
N           -0.92618586207120       -1.30210215599479       -0.03682761578324
C           -1.46982264913417       -2.64643102187190       -0.06029820460571
H            3.71247264356769        1.21471455160235        1.06488849150277
H            4.00791497605742        1.03430808813993       -0.67357694370751
H            2.69910007168542        2.09770118228144       -0.09130154882931
H            3.56654120610678       -1.63682992603973        0.04233140067262
H           -1.67107961066214        3.09322851271934       -0.02552706933167
H           -2.82428953597071        2.09428624779827       -0.95318082946668
H           -2.87644029173232        2.07745725625962        0.81450067533302
H           -1.17061996399332       -3.19584890659852        0.83242232437030
H           -1.14560257411436       -3.17511610292205       -0.95688275822323
H           -2.55549792440841       -2.55659984320617       -0.07459039797972
H            1.38130855184625       -2.94313852034425       -0.01389874181052
25
 energy: -4.984425721960 xtb: 6.6.1 (8d0f1dd)
C            3.24564525265614        1.20958686567453        0.07940052875173
N            2.31576606745250        0.10930984143383        0.02766878102864
C            2.59890019939455       -1.22384554932189        0.03326061220711
N            1.43097912225348       -1.94697525408045        0.00759827576693
C            0.39398722767986       -1.07176528819135       -0.00489628750372
C            0.93304581872101        0.20897764407865        0.01574441034251
C            0.10846519393781        1.37696524864878        0.00120290349385
O            0.51148089874150        2.53962394379753        0.00408528713539
N           -1.25276500097508        1.03560726463696       -0.02777099668232
C           -2.20059712867480        2.14002955588589       -0.04831742575622
C           -1.82410158159521       -0.21159721702849       -0.04754660545314
O           -3.02197459191884       -0.38550371060877       -0.07511438743699
N           -0.94077298352456       -1.31720132064121       -0.03562160018709
C           -1.50148879951362       -2.65283873582029       -0.06365911028342
H            3.71097363434296        1.26400277406687        1.06836594028134
H            4.01353162435074        1.08049008847962       -0.69075464408836
H            2.71841457520017        2.14885991772693       -0.09023968254129
H            3.57471342851014       -1.64371205499633        0.05284011451825
H           -1.62573288818060        3.06340528371241       -0.02123128425276
H           -2.80164704427535        2.09306280334679       -0.95558431967152
H           -2.85957111416932        2.07554563943825        0.81643965001111
H           -1.21097625477955       -3.21579953304542        0.82524373655206
H           -1.18820965404939       -3.18729061540529       -0.96252471245552
H           -2.58662992183119       -2.54647481515133       -0.07606128919751
H            1.37077858818288       -2.95343417446420       -0.00549399843173
25
 energy: -2.026573912029 xtb: 6.6.1 (8d0f1dd)
C            3.25150226885894        1.27939943980628        0.06666319201764
N            2.33856174588909        0.15377880713245       -0.00050363127563
C            2.61874864643269       -1.22471918895620        0.04048053654784
N            1.43059992864789       -1.95876563037835        0.02383754097060
C            0.39887089875537       -1.09869979603241        0.00251831304746
C            0.93177681879721        0.19235581819534        0.01212394123184
C            0.12992527098022        1.32490115029057        0.01148303851867
O            0.52283700698568        2.50668819561283        0.02233071125567
N           -1.25170656144040        0.99134881610074       -0.02096067600358
C           -2.16117581809275        2.11825547284201       -0.04419426864496
C           -1.82513329143584       -0.23547224736533       -0.04849042379212
O           -3.03320312389151       -0.40033741596653       -0.08613783771978
N           -0.95775562897363       -1.34692984783902       -0.03150429092597
C           -1.56265022204816       -2.66563788385425       -0.07123043523555
H            3.70213933030105        1.35519096441868        1.06549312583474
H            4.01986419613665        1.17304025413904       -0.71631366080069
H            2.74058926081628        2.23328345368545       -0.09399598957704
H            3.58490868838952       -1.63912246699458        0.07758910073813
H           -1.53564192214169        3.01229886240023       -0.01087168949062
H           -2.75324985082643        2.09633773705152       -0.95863965411035
H           -2.82420115934941        2.07650790606606        0.81885093741475
H           -1.30017052175581       -3.25935995750315        0.80914884309651
H           -1.28296571623430       -3.21197401964422       -0.97669773929747
H           -2.64664052906804       -2.51762840828070       -0.07913683641895
H            1.37638495220360       -2.96571141275442        0.01519174876614
25
 energy: 7.988698549266 xtb: 6.6.1 (8d0f1dd)
C            3.24783494500593        1.35878680139962        0.04829619738380
N            2.36271281150891        0.19246107996446       -0.03697086138580
C            2.63913066883295       -1.21739935198877        0.04778679711681
N            1.44785907633236       -1.97350640747138        0.04572093982817
C            0.40633015193175       -1.13872543354547        0.01112234635834
C            0.93700077259786        0.16262983681126        0.00557264185595
C            0.14921368030611        1.27402014284678        0.02547882234985
O            0.53067858048893        2.46376395788525        0.04976441616329
N           -1.24546876572478        0.94612301137460       -0.01061369307458
C           -2.11027264175896        2.09857813950582       -0.03829289667531
C           -1.82083716786557       -0.26771545595957       -0.05003926682731
O           -3.03444382439089       -0.42102459249780       -0.10085741313639
N           -0.96835997635531       -1.38892129168846       -0.02525816925759
C           -1.64095272430352       -2.68371574209759       -0.08149998499928
H            3.68130683895982        1.46469670887358        1.05557585924741
H            4.02044453461113        1.28818966705939       -0.74295017112575
H            2.74748708410103        2.32491103173221       -0.10694872758243
H            3.60259646294673       -1.62304340702297        0.11479914595972
H           -1.42693341740020        2.95560417307206        0.00433375799903
H           -2.68777502087221        2.10600273730903       -0.96221092993462
H           -2.77818051994941        2.08266554583996        0.82095429540857
H           -1.42245700744942       -3.31762394631785        0.78682969807911
H           -1.41412363695543       -3.24248726854403       -0.99775893494646
H           -2.72157418391640       -2.47154794877954       -0.08185947554717
H            1.41099794725478       -2.98369338558855        0.04605950288994
25
 energy: 22.574751719789 xtb: 6.6.1 (8d0f1dd)
C            3.23718327423045        1.44298203191037        0.02705917375154
N            2.38838878080341        0.22434184495403       -0.07917959334472
C            2.65847566586346       -1.20306846860809        0.05110537179634
N            1.47985231986318       -1.99177881513006        0.06910272090105
C            0.41432364623812       -1.18851978556541        0.01690881951638
C            0.94936442280686        0.12125716386363       -0.00656246579087
C            0.16587999442404        1.22791572046505        0.04336526118807
O            0.54230391650385        2.41296658746007        0.08661954960939
N           -1.23330157341422        0.90436618001475        0.00386177843745
C           -2.05358323399763        2.08207870078450       -0.03113146836185
C           -1.81308507175565       -0.30348878550775       -0.05252257673491
O           -3.02878560279590       -0.43863202256706       -0.11821668628647
N           -0.97476358135975       -1.44054656946960       -0.01878867471477
C           -1.72938675612314       -2.70612722696416       -0.09266646022345
H            3.64845316892597        1.58158277233634        1.04226913169901
H            4.01463763384304        1.41004318645470       -0.76931574735563
H            2.74180564804166        2.41809209723686       -0.12915495194431
H            3.62375762662432       -1.59604631255234        0.16593820020083
H           -1.31980607509148        2.90035546289210        0.02282715014228
H           -2.61104314279438        2.11909232423599       -0.96580994416040
H           -2.72700636749397        2.09305613163132        0.82178616718898
H           -1.56337897944364       -3.38108042966721        0.76001785298159
H           -1.56732472411633       -3.27309537381716       -1.02169767714690
H           -2.80172905347273       -2.41962484665148       -0.08145673824743
H            1.47098273162668       -3.00709296556730        0.08267570304612
25
 energy: 34.452244619903 xtb: 6.6.1 (8d0f1dd)
C            3.22324797774721        1.50358220459107        0.00912962078715
N            2.40512034173913        0.23827107083238       -0.11485999674305
C            2.66544344848692       -1.18255652898274        0.04613953483481
N            1.51459846211810       -2.00531540547948        0.08485074877256
C            0.41656259335853       -1.23056688334317        0.01360154968704
C            0.96352555336048        0.08174340567154       -0.02524070768231
C            0.17681202497557        1.19792153339641        0.06002627380154
O            0.56401068187727        2.36347989072662        0.12890932852270
N           -1.21524145445087        0.88028513496096        0.01952796131257
C           -2.00958632587832        2.07338563798017       -0.02445035767165
C           -1.80504890875347       -0.32894133678192       -0.05594741700854
O           -3.01847688741433       -0.43755509982296       -0.13433977799416
N           -0.97836732855615       -1.48519448579664       -0.01705972191895
C           -1.79743300055522       -2.72629158256790       -0.10023389184906
H            3.61067815470933        1.66430518786278        1.02951691241605
H            4.00362560554820        1.49024784119713       -0.78601072344881
H            2.72804238284979        2.48217315795701       -0.15821485351660
H            3.63427158509901       -1.56081838776675        0.22373672132138
H           -1.25891723189474        2.86752468040604        0.03977196779686
H           -2.54639263025707        2.12796255224939       -0.96773823139727
H           -2.68808633016338        2.10305059090635        0.82060439730825
H           -1.67128299558217       -3.42260223910395        0.73728390880995
H           -1.68799294475708       -3.28862142156622       -1.03823598234213
H           -2.85533246838031       -2.39128712645426       -0.07512739750075
H            1.53843436270984       -3.02515378889976        0.11139402984971
25
 energy: 38.476182211958 xtb: 6.6.1 (8d0f1dd)
C            3.21216178808325        1.52329379280362       -0.00466230821827
N            2.40643063448712        0.23628133163520       -0.13530935082897
C            2.66239294372901       -1.16439033964726        0.03958470326495
N            1.53566195495957       -2.00773151913941        0.09132833040437
C            0.41516373845421       -1.24829921680448        0.00441664762357
C            0.96852514550241        0.06309230636004       -0.04478049280524
C            0.18020147709164        1.18425324074911        0.06882049972965
O            0.58466170077272        2.33525556169287        0.17292140416271
N           -1.19979715271900        0.87244443867733        0.02992180685600
C           -1.99096907410867        2.07026271434372       -0.02007642125881
C           -1.79941016085535       -0.33872912734459       -0.05915599601256
O           -3.00971312664295       -0.42593030669213       -0.14737748031588
N           -0.97894466332226       -1.50569903941021       -0.02049661923493
C           -1.82323770767126       -2.73498535744939       -0.10264308691886
H            3.57859667630201        1.69160128456205        1.01966923804155
H            3.99647471505428        1.50464925005859       -0.79131493503444
H            2.71448979277205        2.49869730173030       -0.18937003337046
H            3.62987875245844       -1.52818871211915        0.27337519171157
H           -1.24352597904418        2.85999291916809        0.05344594583144
H           -2.51402837025892        2.12982051995458       -0.96938510164745
H           -2.67554083282145        2.10652545593725        0.81826926006141
H           -1.71099612247932       -3.43575705653512        0.72558865063636
H           -1.74038600438357       -3.28592967671806       -1.04557564304300
H           -2.86919514971286       -2.38382578788096       -0.06436959068466
H            1.58331969228934       -3.02767537575989        0.12420927719727
25
 energy: 38.304869880530 xtb: 6.6.1 (8d0f1dd)
C            3.20662347547553        1.52277779458320       -0.01845951059032
N            2.40257548913931        0.23116752941730       -0.15079259013931
C            2.66156787792749       -1.15442678388508        0.03664390819235
N            1.54509154492398       -2.00519869436141        0.09577837400150
C            0.41634686265435       -1.25152288569218       -0.00401585216935
C            0.96677196455598        0.06007994498742       -0.06294591370641
C            0.17798659568582        1.17841902477321        0.07661547444543
O            0.59288565338686        2.32607864034920        0.21699224778829
N           -1.19301707284465        0.86939986677174        0.03582967550226
C           -1.98698341874891        2.06807566397546       -0.01763036126509
C           -1.79555740366181       -0.34203367865199       -0.06253751435210
O           -3.00431234224750       -0.42066027018468       -0.15940162344138
N           -0.97670953822828       -1.51046299129441       -0.02430011366608
C           -1.82725434617664       -2.73470867040247       -0.10321054425852
H            3.55394705613699        1.69467998276120        1.01106502576291
H            3.99911884286164        1.49257212486829       -0.79356937876885
H            2.70758899993583        2.49306326467624       -0.21879833543021
H            3.62310574448833       -1.50569816976844        0.31439519427037
H           -1.23948982879077        2.85965300122415        0.06574382787491
H           -2.50089983844493        2.12891190723366       -0.97228323426286
H           -2.67870925045748        2.10368602727545        0.81487515442219
H           -1.71520496139208       -3.44123953369114        0.71926472908569
H           -1.76013974061742       -3.27793908496907       -1.05111673560135
H           -2.86801962610944       -2.37295933330159       -0.05232682850791
H            1.60490192848408       -3.02268607452196        0.13121882096117
25
 energy: 36.287633495364 xtb: 6.6.1 (8d0f1dd)
C            3.20184142781797        1.51291576417267       -0.03837227966046
N            2.39647310105436        0.22290001462522       -0.17394581900164
C            2.66391020991444       -1.14810127575004        0.03316295978669
N            1.55064674955531       -2.00008306775003        0.10155507218534
C            0.41984255537901       -1.24964552057196       -0.01557620193001
C            0.96235785768177        0.06287747159795       -0.08901496422443
C            0.17376277811067        1.17481548222281        0.09349816557849
O            0.59795773225055        2.31930877930017        0.27590104786608
N           -1.18927983600107        0.86942888232971        0.04354146138881
C           -1.98802989573262        2.06681381697704       -0.01469318206356
C           -1.79109796864851       -0.34169874330004       -0.06792020739312
O           -2.99908818548298       -0.41561154331926       -0.17673055309212
N           -0.97307743677851       -1.50888909601302       -0.02952343731222
C           -1.82407759327461       -2.72979125392278       -0.10380449627289
H            3.52433679159455        1.68996936721880        0.99805960522421
H            4.00973755596867        1.46889417388154       -0.79534009352382
H            2.70303127875787        2.47651048135652       -0.25860553252585
H            3.61376236173614       -1.48252760134886        0.37152919388791
H           -1.24355106364747        2.86327126940996        0.08201337820427
H           -2.49034931265403        2.12642942910236       -0.97593642307048
H           -2.69047431337321        2.09679352940699        0.80906675368244
H           -1.70243411165014       -3.44417630086483        0.71098749707334
H           -1.77243386205954       -3.26407030035100       -1.05738015582534
H           -2.86091057669828       -2.36324879865778       -0.03550453843980
H            1.61935842411594       -3.01405635758004        0.14006664560547
25
 energy: 34.268426657693 xtb: 6.6.1 (8d0f1dd)
C            3.19767595951938        1.50233472773445       -0.05645435251796
N            2.39191149048097        0.21649816048574       -0.19692792974926
C            2.66939158422990       -1.14786315278910        0.02936359703944
N            1.55103497290175       -1.99569989990074        0.10753672821823
C            0.42407658822080       -1.24636358532409       -0.02568825834362
C            0.95864296370267        0.06719281011305       -0.11319275493692
C            0.17204955238002        1.17242173218560        0.11397608715319
O            0.59971930058933        2.31234364019115        0.32548350217529
N           -1.18896030797003        0.87094048916510        0.05180733454071
C           -1.98998753288296        2.06698424402600       -0.01140890516560
C           -1.78744117502889       -0.33945460142695       -0.07355517448631
O           -2.99536113705327       -0.41349277650558       -0.19340636113720
N           -0.96995607717019       -1.50451878498461       -0.03416698178495
C           -1.81901692967884       -2.72433719123070       -0.10505664304040
H            3.50030883398491        1.68614151092800        0.98465593627619
H            4.02118466843429        1.44968449237088       -0.79596932792137
H            2.70136234312499        2.46104531860859       -0.29485218103327
H            3.60399487722560       -1.46488105807202        0.42597323851786
H           -1.24917821848916        2.86703830828532        0.09663513192299
H           -2.48174873340166        2.12530947474865       -0.97849525002722
H           -2.70367765399251        2.09129427859507        0.80329011768442
H           -1.68251432427929       -3.44607360107927        0.70204569345707
H           -1.77962394330593       -3.25124262801271       -1.06365424411933
H           -2.85464579380339       -2.35849426689775       -0.01977988756703
H            1.62297336019785       -3.00777903904198        0.14887478099238
25
 energy: 32.059560794135 xtb: 6.6.1 (8d0f1dd)
C            3.19239485063488        1.49028101226227       -0.07321100212026
N            2.38785168327012        0.21053275903203       -0.21943364701328
C            2.67643695537082       -1.15228652843374        0.02161972280190
N            1.54669520068261       -1.99172311686100        0.11344034203798
C            0.42775376398756       -1.24196330489045       -0.03629495332053
C            0.95596863842426        0.07176261580335       -0.13797933196632
C            0.17334037045759        1.17096874691929        0.13518028634124
O            0.59965349960919        2.30343011246950        0.37352533288279
N           -1.19044439033797        0.87419538531333        0.06076291104848
C           -1.99164448176783        2.06906980521053       -0.00733935655142
C           -1.78448780502065       -0.33545544874505       -0.08088750633882
O           -2.99203457569114       -0.41283103260066       -0.21071027799207
N           -0.96716430328052       -1.49790848967177       -0.03956982985254
C           -1.81103736039263       -2.71927604597547       -0.10626004400371
H            3.47925108263031        1.68286322659989        0.96993692520372
H            4.03116957353408        1.43221352603672       -0.79488247519122
H            2.70108589549049        2.44545342111978       -0.33081721806035
H            3.58908821299288       -1.44731513444631        0.48408007344749
H           -1.25628350049926        2.87158467968528        0.11051550529720
H           -2.47335326276714        2.12629629627765       -0.97960553817678
H           -2.71716696375113        2.08849463570963        0.79739137297229
H           -1.65358279927607       -3.44616684176536        0.69276424868585
H           -1.78141032635552       -3.23831005179761       -1.06912919160882
H           -2.84722881874762       -2.36128210229314       -0.00310012345232
H            1.61736352873901       -3.00359952278658        0.15703767107686
25
 energy: 30.792058484021 xtb: 6.6.1 (8d0f1dd)
C            3.18649841589581        1.48260074569762       -0.08517837985395
N            2.38550075143443        0.20714198685152       -0.23463008525031
C            2.68267284811627       -1.15860949081962        0.00891446159998
N            1.54076538833856       -1.98985741485175        0.11713573928942
C            0.42918579455896       -1.23904509110198       -0.04523901168328
C            0.95542884623023        0.07364521695030       -0.15675032667700
C            0.17746776885960        1.16912507393738        0.14769395839072
O            0.59927407012757        2.29331905440499        0.41379004813014
N           -1.19161182365221        0.87642067705910        0.06712099378135
C           -1.99028376901738        2.07173610379696       -0.00390380676977
C           -1.78293399132916       -0.33244231636167       -0.08812835811730
O           -2.98962419595916       -0.41381505970754       -0.22506949326153
N           -0.96504798147626       -1.49283916138661       -0.04467077683358
C           -1.80381703526140       -2.71734025274759       -0.10648284156333
H            3.46403681170718        1.68424521174562        0.95821040363765
H            4.03549289736906        1.42286533832627       -0.79382043418924
H            2.70016841105998        2.43595004914702       -0.35801529837281
H            3.57076176626168       -1.43036955628862        0.53488559223274
H           -1.25817041341410        2.87395659977695        0.12083551497156
H           -2.46504637568717        2.13034193731821       -0.97968294092503
H           -2.72421551546031        2.08982794169727        0.79317262489563
H           -1.62728568450501       -3.44672298610514        0.68610161855022
H           -1.78259181179246       -3.23047425897838       -1.07281308201317
H           -2.84171826806966       -2.36769518598322        0.01197900557212
H            1.60730776360128       -3.00293656020500        0.16157877060613
25
 energy: 29.768402495545 xtb: 6.6.1 (8d0f1dd)
C            3.18066706456650        1.47678430685849       -0.09225654447686
N            2.38388302326375        0.20475091374451       -0.23921813887283
C            2.68768024098093       -1.16699231882648       -0.00798131210396
N            1.53371786333825       -1.98973952242261        0.11734034785163
C            0.42822926346972       -1.23594654948284       -0.05110529994073
C            0.95680164435294        0.07421696484020       -0.16607332330287
C            0.18211425572663        1.16873245120263        0.15298525476465
O            0.59809716180950        2.28347810194221        0.44431458262151
N           -1.19248128773685        0.87867379242323        0.06984442409383
C           -1.98782757748575        2.07531616852790       -0.00255315192417
C           -1.78303994416577       -0.32950038009251       -0.09440412587142
O           -2.98825506963260       -0.41545690662997       -0.23639749043948
N           -0.96282590415832       -1.48781616709818       -0.04883613415812
C           -1.79460557650055       -2.71737959639633       -0.10470335528082
H            3.45512584310150        1.68587840948463        0.95013630367312
H            4.03483575821717        1.41694453725612       -0.79289854753925
H            2.69732033377807        2.42889288372018       -0.37481212284199
H            3.54646088349583       -1.41393658107190        0.57265614293238
H           -1.25741431629510        2.87598353821649        0.12667602107519
H           -2.45914894643017        2.13670471098679       -0.97993278234392
H           -2.72600470238107        2.09452028297798        0.79007080888401
H           -1.60165993619876       -3.44566605600765        0.68403920870468
H           -1.77743961502545       -3.22654689103127       -1.07230773453537
H           -2.83471188618253       -2.37849812423818        0.02398485324462
H            1.59269609402847       -3.00436936671136        0.15846601193351
25
 energy: 29.795589513066 xtb: 6.6.1 (8d0f1dd)
C            3.17495946563072        1.47654839959920       -0.10045703340847
N            2.38299187137611        0.20397447184686       -0.24425894269038
C            2.69256157010563       -1.17373895686597       -0.02922323846657
N            1.53078701517612       -1.99204934492216        0.11135433050164
C            0.42687863846505       -1.23580646194027       -0.05831660702163
C            0.95940183005726        0.07191234988898       -0.17345416116681
C            0.18526387518456        1.16712271024617        0.15564999522520
O            0.59834550829329        2.27346499441177        0.47796124602861
N           -1.19143835393433        0.87822386517244        0.06991610764258
C           -1.98269309136629        2.07765410716315       -0.00195576197290
C           -1.78318245658926       -0.32917464653367       -0.10003383162316
O           -2.98682897047230       -0.41714787724377       -0.24610339670096
N           -0.96027822719252       -1.48654023696187       -0.05295407934780
C           -1.78979321011188       -2.71915949899097       -0.10173486460017
H            3.44537771124533        1.69122220930300        0.94291311531613
H            4.03271387110641        1.41705311963586       -0.79595016672054
H            2.69190824288046        2.42736311974271       -0.38866006654832
H            3.52301016757881       -1.39555010648282        0.62285660422540
H           -1.25044301614623        2.87546610491580        0.13182768994114
H           -2.45134527034253        2.14374478227057       -0.98058870884157
H           -2.72251035032886        2.09961690248787        0.78868152608863
H           -1.58678910444669       -3.44691328970517        0.68421391021059
H           -1.78002192157631       -3.22667301129480       -1.07087176156253
H           -2.83083523955560       -2.38390616580598        0.03591036642551
H            1.58417411289938       -3.00767893776487        0.15031162521372
25
 energy: 30.141601086553 xtb: 6.6.1 (8d0f1dd)
C            3.17390511778620        1.48027943895553       -0.09550348507837
N            2.38363967743419        0.20604675270365       -0.22566679366797
C            2.69433854868057       -1.18062500913669       -0.03866143307134
N            1.52913294481250       -1.99705068723908        0.10108743358883
C            0.42394370947579       -1.23538658950709       -0.05312394161841
C            0.96369678715617        0.06966572673529       -0.15468160785871
C            0.18589600603852        1.16932078923885        0.14762060361905
O            0.59697225466578        2.27222591457427        0.47160521763636
N           -1.19058173908486        0.87786605245435        0.06174717047547
C           -1.97989369760293        2.07942885964267       -0.00644583766503
C           -1.78543670887785       -0.32940342101037       -0.10003286513577
O           -2.98810397888714       -0.41963795630195       -0.24383892043507
N           -0.95842213471903       -1.48610615762697       -0.05175415264519
C           -1.78542044333195       -2.72208065528730       -0.09718036080141
H            3.45504487749444        1.69348648892469        0.94607874914353
H            4.02386959884498        1.42324665723737       -0.79932048265539
H            2.68602890314181        2.43127776728648       -0.37464034927365
H            3.50479380573734       -1.39182892845499        0.61439044443708
H           -1.24459190668490        2.87498984331787        0.12397197734977
H           -2.45395138192139        2.14861937557130       -0.98201417831014
H           -2.71303617533122        2.10551762503576        0.78986388180867
H           -1.58542166366870       -3.44461975475746        0.69323067768095
H           -1.77088283155640       -3.23456064865870       -1.06335294413390
H           -2.82789090608243       -2.38834494224687        0.03388892335839
H            1.57458600441684       -3.01329793927851        0.12976616939958
25