25
 energy: -42.109744035702 gnorm: 0.002662699700 xtb: 6.6.1 (8d0f1dd)
C            2.68798441741630        1.31798049700175        0.00011859425586
N            1.93689279854607        0.09325788226228        0.03447321362442
C            2.41738323484918       -1.14417268092914       -0.08142832121622
N            1.40161746082002       -2.01779944429845        0.03130022573291
C            0.24093570810042       -1.29158536362888        0.21661832387378
C            0.58409218675001        0.03647883992706        0.21071941747573
C           -0.25623648204444        1.29570860090938        0.44118347546438
O           -0.28322689409958        1.74190616773883        1.58603694596998
N           -0.80077284264243        1.71277712070750       -0.66494273075682
C           -1.58544041068356        2.89482023868605       -0.73480516521570
C           -1.67748959044707       -1.57993604442859        1.49201556011972
O           -2.19754918812408       -1.22763107725588        2.46304331704083
N           -1.01011551271574       -1.90497113419486        0.45530932593137
C           -1.51779382490147       -2.87560319260915       -0.52858647441090
H            2.45530172820287        1.90938143749149        0.88792578287567
H            3.75270250358021        1.10016397294707       -0.02746270398547
H            2.40850872534767        1.90145952817569       -0.87846009202306
H            3.44471975323319       -1.40693467455405       -0.23700654488242
H           -0.97881162984834        3.78420738554284       -0.53631851632972
H           -1.99761180898729        2.96112353935061       -1.74170412956762
H           -2.40305112829021        2.87804946548366       -0.00600852308300
H           -1.06168684398200       -3.85464723769135       -0.37306450462606
H           -1.28956816853521       -2.51371153997237       -1.53027021338837
H           -2.59606137396260       -2.97008013057278       -0.42168784125182
H            1.48570869666506       -3.02200361448730       -0.02582680373209
