72
 energy: 0.000000000000 xtb: 6.6.1 (8d0f1dd)
N           -1.47310934822924        2.74401318561852        2.22063942287560
C           -1.55658894218425        2.16490305624665        1.13274284460745
C           -2.74549225258129        2.05621251263064        0.23826250649470
C           -3.31377583855761        0.64333417511334        0.32332515650284
C           -4.30230195924506        0.24487112428158       -0.58026167086503
C           -4.85238808050968       -1.02286499940159       -0.53363593669082
O           -5.81420026757557       -1.48606047972767       -1.36157895357670
C           -6.39655692584623       -0.60827005826649       -2.29568495601309
C           -4.39972542350640       -1.94646120241305        0.44396933240983
O           -4.98748357557592       -3.16146026488900        0.41085995818162
C           -4.66362171172287       -4.10093865802695        1.40909140816864
C           -3.42072545213514       -1.54561399150247        1.33436558640148
C           -2.88302826362110       -0.26315802838497        1.27400162590187
C           -2.19303818453636        2.30467021687947       -1.18742988123374
C           -1.26651549989641        1.17243380322503       -1.65249445018642
C            0.01082525039567        1.09745464658138       -0.89354811789923
N            0.61779399208289       -0.02034948241203       -0.57705527866251
C            2.00145228921113       -0.02376006609561       -0.15611401051620
C            2.92554961797610       -0.53865287672537       -1.27700100652360
C            4.35756883501756       -0.43050761225877       -0.83075552032494
C            5.07346182539911        0.73206415878124       -1.03980975472950
C            6.38628045899965        0.84224449235903       -0.60344828301384
C            7.00047329721665       -0.20824758267940        0.05722314949100
O            8.26703733840855       -0.21011315050632        0.52410948507466
C            9.06912311989339        0.92943609656965        0.31863060963839
C            6.27040022445068       -1.40439766990411        0.28033468609137
O            6.94830004375713       -2.38012947787858        0.92752007684741
C            6.31537376337817       -3.61583233633369        1.15217722400438
C            4.96302840674480       -1.49347485723979       -0.16064431849589
C           -0.05511211878686       -1.29906259857679       -0.62085692079872
C           -3.86758072907722        3.07992629005348        0.58498065642721
C           -4.49286201346546        2.77383518785172        1.94313307512182
C           -3.39165211343248        4.52917708609625        0.54797528556046
H           -4.66030069703099        0.94509076131725       -1.31640581036773
H           -6.85037992114187        0.25803164586058       -1.80468862056629
H           -7.17287509152171       -1.18600121846629       -2.79318183475679
H           -5.66836870040540       -0.26952968819383       -3.04040283452035
H           -4.88416765986127       -3.71589494995018        2.40913564538747
H           -5.29223619720187       -4.96637504833431        1.20969248126828
H           -3.61139846644506       -4.39919876145526        1.35529370415983
H           -3.07077825100221       -2.21868786295666        2.10002682176568
H           -2.14562774333496        0.02067850888151        2.01001363031684
H           -3.02188903413801        2.38238034416975       -1.88813562572432
H           -1.65198546223364        3.25146730843841       -1.20556295755141
H           -1.81103391047759        0.23006526775522       -1.62116316669324
H           -0.99335697743926        1.37490224954061       -2.69443281971844
H           -0.67628070635666        1.65183902374723        0.61785732877701
H            0.63525847086258        1.98466388206871       -0.92314029755375
H            2.11132572081740       -0.65949698961381        0.72532619960637
H            2.30680494458141        0.98978260887088        0.11078973822125
H            2.76694224489122        0.06750735773687       -2.17075272340394
H            2.67954606229959       -1.57455642411728       -1.51167757545099
H            4.62170041431221        1.56295626549351       -1.56123593485311
H            6.92357738865082        1.75715832247601       -0.79119604059515
H            8.65159193263071        1.81001840117181        0.81701562739969
H            9.20136256512460        1.14042868409438       -0.74698998879646
H           10.03428931104811        0.69003246578081        0.76064945022918
H            7.05567240429544       -4.23621211097668        1.65347581279537
H            5.43848051513375       -3.50813590722545        1.79970582482858
H            6.02060097762632       -4.09420535105165        0.21253284608183
H            4.40102799328555       -2.40127288651695       -0.00490198294521
H           -0.22071301762289       -1.61775598610935       -1.65116024301020
H           -1.01972267469312       -1.24102728946113       -0.10935207845464
H            0.55899959333766       -2.04486104898380       -0.12333731565713
H           -4.63991918782192        2.95501120214274       -0.18098089750912
H           -3.76095251366987        2.90314731895452        2.73380846416528
H           -4.87457659255110        1.75695657819473        1.97884621460846
H           -5.31925601899505        3.45579242388173        2.12325583951056
H           -2.60025614255587        4.69225089676674        1.27368930043085
H           -3.03987434616939        4.81897697030947       -0.43870979129779
H           -4.22191779840287        5.18069696155015        0.80616701440619
H           -0.59832439338922        2.77744720721660        2.72959009765665
72
 energy: -5.219621095446 xtb: 6.6.1 (8d0f1dd)
N           -1.47138393039881        2.76055587771234        2.23453752194286
C           -1.55351650113426        2.14276365284918        1.14945669807098
C           -2.74620289186202        2.05652004473540        0.24818520925634
C           -3.31438719979375        0.64294130166934        0.33042360776868
C           -4.29925355016389        0.23941397715866       -0.57414658441634
C           -4.84947948854504       -1.02782619786761       -0.52870062035436
O           -5.81669766681814       -1.49327264850457       -1.36012727039115
C           -6.39002798453388       -0.61355915365403       -2.29569107908974
C           -4.40276527192642       -1.94915997177865        0.44889039816742
O           -4.99911439405608       -3.16806537469796        0.41721937726171
C           -4.67647522553492       -4.10295324130629        1.41754031376963
C           -3.42591659471773       -1.54872611343627        1.34025813883899
C           -2.88707078727671       -0.26657782486758        1.28015213239598
C           -2.19479620884496        2.29538811392371       -1.18235023930638
C           -1.26586336517964        1.18048988773800       -1.68790794447193
C            0.00986625649240        1.11584937327404       -0.91930235995870
N            0.63041021290599       -0.04322707921849       -0.57704100635758
C            2.00437651439868       -0.03535046557437       -0.16476268792490
C            2.93561920104822       -0.53900641326628       -1.28483479969287
C            4.36233039439583       -0.43072565905640       -0.84333131638634
C            5.07670672337433        0.73513434217956       -1.04317168283791
C            6.38563590822757        0.84675093666821       -0.59833813114945
C            6.99748756374632       -0.20438188397481        0.06328388336843
O            8.27092572982855       -0.20758098357790        0.53480768133111
C            9.06663752317971        0.93342334254729        0.32825891265687
C            6.26832700959054       -1.39848484724642        0.28376709076460
O            6.94781711840849       -2.37844017116934        0.93513552611327
C            6.31025122687857       -3.61139000407137        1.15491696399004
C            4.96535535195375       -1.49050498786422       -0.16497162884944
C           -0.04919448660423       -1.31057816252091       -0.62752999174638
C           -3.86901306975321        3.08803007433290        0.58735684480762
C           -4.49531317466071        2.78148476023696        1.94386229105853
C           -3.38694819484049        4.53690922878745        0.55971608015696
H           -4.64888796705309        0.93625587030109       -1.31748848448247
H           -6.83911836656233        0.25715365498413       -1.80720515289719
H           -7.16882273817536       -1.18771414718679       -2.79463396442632
H           -5.65797445442721       -0.27863719549198       -3.03834207525317
H           -4.89464253401401       -3.71409085541973        2.41725720574995
H           -5.30760516339037       -4.96778565800849        1.22099158566181
H           -3.62468202973458       -4.40353803937200        1.36544971125159
H           -3.07467636917600       -2.22487650141988        2.10390935130971
H           -2.14139311445291        0.01276832544045        2.00837719698090
H           -3.02889819585506        2.38569467729751       -1.87793573379235
H           -1.64724973610504        3.23876821655282       -1.19648130124517
H           -1.80367795163487        0.23470662907837       -1.64131073314979
H           -1.03119021736501        1.38649818373629       -2.74175951882342
H           -0.67626145919483        1.65602191418139        0.62343119769404
H            0.65150388568615        1.98252225177828       -0.99531112012435
H            2.11966514270052       -0.66401736023876        0.72250605159137
H            2.29446439897598        0.98436553598402        0.09939901569629
H            2.76726386801303        0.07096433279696       -2.17391283151680
H            2.68392374507181       -1.57346748085246       -1.51917928255896
H            4.62276651950767        1.56695180916189       -1.56106146207902
H            6.92347593841934        1.76266509423529       -0.78319549315541
H            8.64563249282968        1.81407149483548        0.82465340278843
H            9.19839716023020        1.14510354002481       -0.73789435824913
H           10.03232481447947        0.69697560402810        0.77133490148313
H            7.04779407647235       -4.23454963966715        1.65780762587977
H            5.43048442401903       -3.50311851021334        1.79862422482644
H            6.01585445187892       -4.08796910457002        0.21380216211981
H            4.40001456017468       -2.39614776136670       -0.00720314081321
H           -0.21171534277468       -1.63161698962404       -1.66078359804257
H           -1.01852883170348       -1.24430357979641       -0.12554324399259
H            0.55682126202177       -2.05676399242267       -0.12135174909782
H           -4.65285316805762        2.98471909870440       -0.17168977901381
H           -3.75138854916825        2.89784956000870        2.72455706598152
H           -4.87947436751535        1.76546035292544        1.96902182902443
H           -5.31981766545221        3.46329715307232        2.13747710359010
H           -2.58793118072025        4.68314856045387        1.27968854877936
H           -3.03619959328564        4.82839260866079       -0.42698730314239
H           -4.20829499421331        5.19815001058326        0.82713629854819
H           -0.58553070134978        2.75954037873761        2.73077105057186
72
 energy: -6.188083119062 xtb: 6.6.1 (8d0f1dd)
N           -1.46084450724917        2.76887237670332        2.23908143532850
C           -1.53898415668618        2.12649008714178        1.15505327662030
C           -2.74565898850650        2.05371205537038        0.25836888841796
C           -3.31432474983249        0.63772851855651        0.34137902524408
C           -4.29411538287686        0.22750557218134       -0.56512141774618
C           -4.84647523773702       -1.03821140807466       -0.51887317909360
O           -5.81852592814179       -1.50545576130206       -1.35550898977639
C           -6.37505024713657       -0.62399810233616       -2.29633437098152
C           -4.41082647488171       -1.95611011433092        0.46106865390487
O           -5.02133219835146       -3.17711351624544        0.43349712356649
C           -4.70444672385294       -4.10619833224499        1.43763996262883
C           -3.43399738358132       -1.55787340343466        1.35214392036931
C           -2.89191585132484       -0.27720625156042        1.29053745088654
C           -2.19922504804848        2.28893676226869       -1.17757241171323
C           -1.27438919808778        1.18304729189218       -1.72581117355159
C            0.01236722667766        1.12768232838489       -0.97234504739611
N            0.63686708156966       -0.06426807670939       -0.59275442135918
C            2.00164741689514       -0.04190043631066       -0.18567263063849
C            2.94739155012997       -0.53614121075218       -1.30063282919970
C            4.36771112595281       -0.42620928929049       -0.85692887309672
C            5.08199451447519        0.74170586398087       -1.04636987127076
C            6.38629320254518        0.85560606939073       -0.58850835763330
C            6.99282589697362       -0.19594648046363        0.07509462418600
O            8.27126883085893       -0.19945497978556        0.55550686049712
C            9.05960940653907        0.94347758853831        0.34977577531693
C            6.26496633041886       -1.38757566932247        0.28971780352294
O            6.94239966146699       -2.37201004409448        0.94895896508211
C            6.29761374789163       -3.60113412455472        1.16073439373160
C            4.96719533673387       -1.48272661224792       -0.17160456101137
C           -0.04597681646793       -1.32236857523998       -0.64916522181960
C           -3.86352353113722        3.10221638834368        0.59517179244225
C           -4.49389641641473        2.79124576501530        1.94827029712957
C           -3.36690702798216        4.54931756250708        0.58406619197084
H           -4.63032572701635        0.91951304302036       -1.31927738387017
H           -6.81591400788005        0.25511405960556       -1.81411209013243
H           -7.15845856104776       -1.19091067672699       -2.79749732374534
H           -5.63517845820816       -0.29936451023670       -3.03605744239349
H           -4.91915350224191       -3.71088949932175        2.43631354672822
H           -5.34154222181947       -4.96866051134239        1.24668372262619
H           -3.65451641382177       -4.41470343117048        1.38863253352423
H           -3.08320268634057       -2.23692408295752        2.11449078902635
H           -2.13659847995007       -0.00474723309782        2.01109581111802
H           -3.04439781271693        2.39859563700916       -1.85944925680298
H           -1.64105064269298        3.22678052326545       -1.18235283095442
H           -1.79931279943105        0.23020636385540       -1.67460909102140
H           -1.09338104903280        1.40591518510020       -2.79240242974378
H           -0.67440087736140        1.64443537306133        0.62589531345779
H            0.68760413620485        1.95954507709202       -1.12568126168945
H            2.13053478321222       -0.66564756886658        0.70708891081028
H            2.27613806064300        0.98278677028309        0.07897583662276
H            2.77129126293865        0.07852864422879       -2.18477945378899
H            2.69323004725935       -1.56963397081634       -1.53895318662231
H            4.62669746640459        1.57411181392387       -1.56209331330996
H            6.92334024411346        1.77424773272005       -0.76504794177820
H            8.63346351539354        1.82401271800491        0.84304091245384
H            9.19332358218648        1.15592764123705       -0.71663873145852
H           10.02578843706027        0.71264563717426        0.79554276640014
H            7.02911087280745       -4.22926633211649        1.66719893123045
H            5.41291221789319       -3.49191984766899        1.79778814658765
H            6.00652773808088       -4.07489259646346        0.21666138237766
H            4.39725016520014       -2.38561648693013       -0.01407245884150
H           -0.19377961040743       -1.65871281208436       -1.68310761705989
H           -1.02417491896417       -1.25206288560030       -0.16533656447018
H            0.54772079995882       -2.06721755699035       -0.12311070234230
H           -4.65942108490516        3.03050236447315       -0.15784012583947
H           -3.73587275854486        2.88421091545776        2.71779863378571
H           -4.89122460410946        1.77991825696603        1.95485812883551
H           -5.31034897667853        3.47796805085531        2.16223824003602
H           -2.55618836151477        4.66882505891550        1.29547658344944
H           -3.02389746664362        4.85023846269473       -0.40283574556630
H           -4.17342490003063        5.22300022701519        0.87198643240658
H           -0.55700407194133        2.71779037652860        2.71311177785385
72
 energy: -3.781699270343 xtb: 6.6.1 (8d0f1dd)
N           -1.43679661444982        2.74757475054936        2.24235949866111
C           -1.51470232546815        2.10470089632582        1.15086565179019
C           -2.74327410832416        2.04693591796924        0.26881409646901
C           -3.31246440387900        0.62748474346885        0.35630123515524
C           -4.28560011071750        0.20929910022365       -0.55369693316744
C           -4.84345701669300       -1.05382989610198       -0.50365372420256
O           -5.81843231369695       -1.52204372371134       -1.34672465171812
C           -6.35042307071347       -0.64028122401993       -2.29826838768150
C           -4.42439360269186       -1.96717744879186        0.48249418947657
O           -5.05428624326665       -3.18689599354422        0.46221486311706
C           -4.75040021579730       -4.11007072028685        1.47255585792792
C           -3.44452621777503       -1.57230944305574        1.37132795098285
C           -2.89573578849264       -0.29433747458596        1.30526109804125
C           -2.20802181786489        2.28232869609908       -1.17347931424958
C           -1.29452800375435        1.18243860917968       -1.77266973641775
C            0.01585472979127        1.13217221176705       -1.06057636541142
N            0.63721429444059       -0.08626924585339       -0.62955352643681
C            1.99374011253591       -0.04463518341536       -0.22056621102948
C            2.96018673035497       -0.52806296254328       -1.32733948489688
C            4.37279856733580       -0.41518541961110       -0.87161033576452
C            5.08830446984054        0.75444473860876       -1.04861147699981
C            6.38640724844620        0.87088102867044       -0.57306499762783
C            6.98539579073267       -0.18167520359531        0.09409545947035
O            8.26600251497785       -0.18422648227826        0.58798666984003
C            9.04719946752942        0.96098809354150        0.38563014420324
C            6.25829783551505       -1.37136756585240        0.29950849683333
O            6.92947447822011       -2.35990276183845        0.96959298177976
C            6.27574008031325       -3.58462647538843        1.17036668821938
C            4.96687410209197       -1.46946160642258       -0.17902100380874
C           -0.04437253305311       -1.33840448563371       -0.68819437151881
C           -3.84892128762713        3.12217510969590        0.61082898839103
C           -4.48666143136051        2.80257701437131        1.95793759001942
C           -3.32737797800847        4.56485885483511        0.62397574315532
H           -4.60481402347145        0.89493715149876       -1.32118352170073
H           -6.77919646985324        0.25179351225981       -1.82727205122527
H           -7.14045377909362       -1.19669254591749       -2.80183599349021
H           -5.59832353372950       -0.33408830375588       -3.03431149144427
H           -4.96067513449186       -3.70532605127750        2.46913237686415
H           -5.39832903049180       -4.96713015022472        1.28927815017220
H           -3.70440582518009       -4.43397265910295        1.42845390294689
H           -3.09670952480835       -2.25369198917842        2.13377399114866
H           -2.13095529320591       -0.03098460028424        2.01944525337252
H           -3.06598561006729        2.41902535877064       -1.83630056939675
H           -1.63372715001633        3.21099380931146       -1.16543704052669
H           -1.80372815383531        0.22129414997410       -1.72196084255874
H           -1.17546618510893        1.43148358571102       -2.84910432789242
H           -0.66405797675229        1.63497542695777        0.60963461881471
H            0.73290328877110        1.91503909336802       -1.31191739082617
H            2.13758058682180       -0.66388897694600        0.67729285160209
H            2.25065100146212        0.98475832504919        0.04615002749370
H            2.78199753339115        0.09121146822943       -2.20769073167035
H            2.70790217510472       -1.56115988498558       -1.57224725253622
H            4.63403734834647        1.58693720727798       -1.56505672890179
H            6.92198825227861        1.79303964746727       -0.73732244981325
H            8.61412908890315        1.84110166515562        0.87469390093301
H            9.18596941645893        1.17418877772930       -0.68064668264834
H           10.01317440020981        0.73760196915342        0.83652332523096
H            6.99795769909073       -4.21927638316606        1.68291042276341
H            5.38388974785718       -3.47362552619530        1.79758389922421
H            5.99148470820706       -4.05446760241608        0.22177348649355
H            4.39218922686925       -2.37002304232824       -0.02567977376364
H           -0.16386529318527       -1.69988630244064       -1.72106954091773
H           -1.03682689316714       -1.26399113664423       -0.23353158068431
H            0.53227962470247       -2.07726117682822       -0.12918054681483
H           -4.65529263899796        3.09201901100003       -0.13790916069838
H           -3.71512093282091        2.85890853690206        2.71753753251366
H           -4.90997088833647        1.80111657386374        1.93688926090346
H           -5.28704610134681        3.50126262934816        2.19777928503701
H           -2.50056412293020        4.64958173902746        1.32231323813964
H           -3.00001586091214        4.88431279966913       -0.36315540423191
H           -4.11290797887464        5.25253320692874        0.94469509360578
H           -0.50691223939537        2.65854601033234        2.67435231433672
72
 energy: -0.464272267671 xtb: 6.6.1 (8d0f1dd)
N           -1.40567204316988        2.71267145184034        2.24335935849606
C           -1.49109025313130        2.08334748057604        1.14038198075523
C           -2.73901825064660        2.03849587993243        0.27598606220788
C           -3.30967912202535        0.61669006525242        0.36914165189416
C           -4.27728612709877        0.19257725668133       -0.54415189142211
C           -4.84148244320919       -1.06780407043048       -0.48968459011432
O           -5.81679194475496       -1.53602808318626       -1.33755534833970
C           -6.32718672725844       -0.65553570642776       -2.30083065328245
C           -4.43715684950680       -1.97722471293670        0.50378623641763
O           -5.08331582215585       -3.19324654407724        0.49055799014995
C           -4.79456374204298       -4.11258578284446        1.50750243730282
C           -3.45369213786530       -1.58489158109192        1.38976388386961
C           -2.89754815785500       -0.30968782942224        1.31854818855139
C           -2.21574622826195        2.27558949779294       -1.17156746965808
C           -1.31500405698536        1.18112334209568       -1.81497715577123
C            0.01788364945944        1.12993616727014       -1.14415070115996
N            0.63523343176038       -0.10233924819264       -0.67323115447625
C            1.98550727214256       -0.04446148271818       -0.25573425949985
C            2.96993619755110       -0.51875891023606       -1.35338483619112
C            4.37597844674926       -0.40301928060528       -0.88326407846009
C            5.09242390198037        0.76809698789731       -1.04940178999943
C            6.38481310619870        0.88618853474469       -0.55833744777405
C            6.97755145382177       -0.16724388870328        0.11267345637703
O            8.25755335109576       -0.16874921273471        0.61833752234732
C            9.03481794601798        0.97826865532053        0.42035986952048
C            6.25014131901403       -1.35633126519837        0.30949251132511
O            6.91464986816898       -2.34735239025447        0.98795867667553
C            6.25413863322745       -3.56916919360815        1.17964468472860
C            4.96433386154577       -1.45615868326632       -0.18414455331941
C           -0.04340511517836       -1.35287884207339       -0.72762237814932
C           -3.83084204701869        3.13847826751106        0.62732930549692
C           -4.47673143858812        2.81121499720740        1.96799729289217
C           -3.28675456039383        4.57619277041661        0.66254350445917
H           -4.58308142940743        0.87266237560129       -1.32219262401534
H           -6.74498504027066        0.24846414243619       -1.84125425953260
H           -7.12270802118850       -1.20341373390211       -2.80564983409644
H           -5.56385524074932       -0.36775908290065       -3.03369321281210
H           -5.00131469154510       -3.69890055749568        2.50159242990198
H           -5.45392122099471       -4.96298642154458        1.32993958194766
H           -3.75297318472662       -4.45244698181730        1.46842230039287
H           -3.10949494327372       -2.26744857719083        2.15338139236103
H           -2.12606630369813       -0.05406779358595        2.02857992643221
H           -3.08319721510810        2.43500511642008       -1.81837818302422
H           -1.62842320033971        3.19642837172135       -1.15427800090075
H           -1.81481941309641        0.21522264599420       -1.76348009616086
H           -1.24106284109057        1.44991594947457       -2.89548531543328
H           -0.64951805995333        1.63139948368656        0.57950196714181
H            0.75939526432763        1.87314867976663       -1.46567069417871
H            2.13496922414441       -0.65990618536379        0.64573457841100
H            2.22729406938417        0.98872004267186        0.01290795225722
H            2.79468870901596        0.10360463603567       -2.23194244133733
H            2.72147958483588       -1.55173418490645       -1.60379585678369
H            4.64089186495648        1.60063159761535       -1.56812251004892
H            6.91974332830020        1.81061063321256       -0.71288275085075
H            8.59578661977379        1.85776702561846        0.90591002896415
H            9.17928316297954        1.19199676347840       -0.64543720947529
H            9.99957605739043        0.75993910222779        0.87685671421698
H            6.96833196767240       -4.20855942892583        1.69811035527602
H            5.35596207921986       -3.45636570668061        1.79794811877797
H            5.97687884318431       -4.03593505095738        0.22718297245304
H            4.38677282274268       -2.35579011233879       -0.03637571009357
H           -0.13613991359821       -1.73665095263873       -1.75808070676556
H           -1.04852154864973       -1.27390570510148       -0.29987177450904
H            0.51879514477054       -2.08293168560513       -0.13823055302330
H           -4.64441851239099        3.14426284497222       -0.11811245084267
H           -3.69722247055307        2.83249566716228        2.72226895785794
H           -4.92593907117220        1.82050581718876        1.92242845234521
H           -5.26074633554692        3.52271310250925        2.22879136153208
H           -2.44590549089532        4.63254934237902        1.34817600507064
H           -2.97414829224819        4.91387781223288       -0.32414808876861
H           -4.05368265907758        5.27423022539577        1.01313165809326
H           -0.45780021781112        2.60653790869084        2.64137774582453
72
 energy: 2.632618177310 xtb: 6.6.1 (8d0f1dd)
N           -1.36902874854711        2.67112024171956        2.24112450098777
C           -1.46628329111030        2.06189417257731        1.12539438290635
C           -2.73246439042046        2.02914294028646        0.28080660150777
C           -3.30545552994651        0.60547271701044        0.38047827157772
C           -4.26847232574474        0.17651660979790       -0.53573456858973
C           -4.83975787574018       -1.08080391768258       -0.47643674191736
O           -5.81428770540878       -1.54841698226060       -1.32809647356576
C           -6.30489934694557       -0.67040496299090       -2.30360535293705
C           -4.44922327084497       -1.98648734074744        0.52495578532269
O           -5.10984094207074       -3.19750083921208        0.51845397506470
C           -4.83772726795233       -4.11389467852175        1.54241811617391
C           -3.46201825230600       -1.59630619994067        1.40784113521867
C           -2.89783574764273       -0.32412122967102        1.33101949644107
C           -2.22235049770717        2.26886526237963       -1.17183874166809
C           -1.33551436029511        1.17925192448126       -1.85389126162149
C            0.01763942799822        1.12389893954952       -1.22310293241703
N            0.63207667224553       -0.11491265804098       -0.72171692994332
C            1.97659269411809       -0.04181735521176       -0.29138759040124
C            2.97779026870445       -0.50846773123240       -1.37861565909970
C            4.37759352588018       -0.38992563100975       -0.89275446675665