      -----------------------------------------------------------      
     |                   =====================                   |     
     |                           x T B                           |     
     |                   =====================                   |     
     |                         S. Grimme                         |     
     |          Mulliken Center for Theoretical Chemistry        |     
     |                    University of Bonn                     |     
      -----------------------------------------------------------      

   * xtb version 6.6.1 (8d0f1dd) compiled by 'conda@1efc2f54142f' on 2023-08-01

   xtb is free software: you can redistribute it and/or modify it under
   the terms of the GNU Lesser General Public License as published by
   the Free Software Foundation, either version 3 of the License, or
   (at your option) any later version.
   
   xtb is distributed in the hope that it will be useful,
   but WITHOUT ANY WARRANTY; without even the implied warranty of
   MERCHANTABILITY or FITNESS FOR A PARTICULAR PURPOSE.  See the
   GNU Lesser General Public License for more details.
   
   Cite this work as:
   * C. Bannwarth, E. Caldeweyher, S. Ehlert, A. Hansen, P. Pracht,
     J. Seibert, S. Spicher, S. Grimme, WIREs Comput. Mol. Sci., 2020, 11,
     e01493. DOI: 10.1002/wcms.1493
   
   for GFN2-xTB:
   * C. Bannwarth, S. Ehlert and S. Grimme., J. Chem. Theory Comput., 2019,
     15, 1652-1671. DOI: 10.1021/acs.jctc.8b01176
   for GFN1-xTB:
   * S. Grimme, C. Bannwarth, P. Shushkov, J. Chem. Theory Comput., 2017,
     13, 1989-2009. DOI: 10.1021/acs.jctc.7b00118
   for GFN0-xTB:
   * P. Pracht, E. Caldeweyher, S. Ehlert, S. Grimme, ChemRxiv, 2019, preprint.
     DOI: 10.26434/chemrxiv.8326202.v1
   for GFN-FF:
   * S. Spicher and S. Grimme, Angew. Chem. Int. Ed., 2020, 59, 15665-15673.
     DOI: 10.1002/anie.202004239
   
   for ALPB and GBSA implicit solvation:
   * S. Ehlert, M. Stahn, S. Spicher, S. Grimme, J. Chem. Theory Comput.,
     2021, 17, 4250-4261. DOI: 10.1021/acs.jctc.1c00471
   
   for DFT-D4:
   * E. Caldeweyher, C. Bannwarth and S. Grimme, J. Chem. Phys., 2017,
     147, 034112. DOI: 10.1063/1.4993215
   * E. Caldeweyher, S. Ehlert, A. Hansen, H. Neugebauer, S. Spicher,
     C. Bannwarth and S. Grimme, J. Chem. Phys., 2019, 150, 154122.
     DOI: 10.1063/1.5090222
   * E. Caldeweyher, J.-M. Mewes, S. Ehlert and S. Grimme, Phys. Chem. Chem. Phys.
     2020, 22, 8499-8512. DOI: 10.1039/D0CP00502A
   
   for sTDA-xTB:
   * S. Grimme and C. Bannwarth, J. Chem. Phys., 2016, 145, 054103.
     DOI: 10.1063/1.4959605
   
   in the mass-spec context:
   * V. Asgeirsson, C. Bauer and S. Grimme, Chem. Sci., 2017, 8, 4879.
     DOI: 10.1039/c7sc00601b
   * J. Koopman and S. Grimme, ACS Omega 2019, 4, 12, 15120-15133.
     DOI: 10.1021/acsomega.9b02011
   
   for metadynamics refer to:
   * S. Grimme, J. Chem. Theory Comput., 2019, 155, 2847-2862
     DOI: 10.1021/acs.jctc.9b00143
   
   for SPH calculations refer to:
   * S. Spicher and S. Grimme, J. Chem. Theory Comput., 2021, 17, 1701-1714
     DOI: 10.1021/acs.jctc.0c01306
   
   with help from (in alphabetical order)
   P. Atkinson, C. Bannwarth, F. Bohle, G. Brandenburg, E. Caldeweyher
   M. Checinski, S. Dohm, S. Ehlert, S. Ehrlich, I. Gerasimov, C. Hölzer
   A. Katbashev, J. Koopman, C. Lavigne, S. Lehtola, F. März, M. Müller,
   F. Musil, H. Neugebauer, J. Pisarek, C. Plett, P. Pracht, F. Pultar,
   J. Seibert, P. Shushkov, S. Spicher, M. Stahn, M. Steiner, T. Strunk,
   J. Stückrath, T. Rose, and J. Unsleber
   
 * started run on 2024/04/06 at 11:16:32.852     

           -------------------------------------------------
          |                Calculation Setup                |
           -------------------------------------------------

          program call               : xtb struc.xyz --opt loose --input .xc1 --gfn2
          hostname                   : n-62-30-23
          coordinate file            : struc.xyz
          omp threads                :                     1

   ID    Z sym.   atoms
    1    7 N      1, 17
    2    6 C      2-6, 8, 9, 11-16, 18-23, 25, 26, 28-33
    3    8 O      7, 10, 24, 27
    4    1 H      34-72
constraining bond 16 51 to    4.7133300 Å, actual value:    3.2075267 Å

           -------------------------------------------------
          |                 G F N 2 - x T B                 |
           -------------------------------------------------

        Reference                      10.1021/acs.jctc.8b01176
      * Hamiltonian:
        H0-scaling (s, p, d)           1.850000    2.230000    2.230000
        zeta-weighting                 0.500000
      * Dispersion:
        s8                             2.700000
        a1                             0.520000
        a2                             5.000000
        s9                             5.000000
      * Repulsion:
        kExp                           1.500000    1.000000
        rExp                           1.000000
      * Coulomb:
        alpha                          2.000000
        third order                    shell-resolved
        anisotropic                    true
        a3                             3.000000
        a5                             4.000000
        cn-shift                       1.200000
        cn-exp                         4.000000
        max-rad                        5.000000


          ...................................................
          :                      SETUP                      :
          :.................................................:
          :  # basis functions                 171          :
          :  # atomic orbitals                 171          :
          :  # shells                          105          :
          :  # electrons                       180          :
          :  max. iterations                   250          :
          :  Hamiltonian                  GFN2-xTB          :
          :  restarted?                      false          :
          :  GBSA solvation                  false          :
          :  PC potential                    false          :
          :  electronic temp.         5000.0000000     K    :
          :  accuracy                    1.0000000          :
          :  -> integral cutoff          0.2500000E+02      :
          :  -> integral neglect         0.1000000E-07      :
          :  -> SCF convergence          0.1000000E-05 Eh   :
          :  -> wf. convergence          0.1000000E-03 e    :
          :  Broyden damping             0.4000000          :
          ...................................................

 iter      E             dE          RMSdq      gap      omega  full diag
   1   -100.5973919 -0.100597E+03  0.374E+00    3.20       0.0  T
   2   -100.7362642 -0.138872E+00  0.221E+00    1.08       1.0  T
   3   -100.7049001  0.313641E-01  0.141E+00    3.29       1.0  T
   4   -100.7721690 -0.672689E-01  0.526E-01    1.50       1.0  T
   5   -100.7894292 -0.172602E-01  0.190E-01    1.98       1.0  T
   6   -100.7911978 -0.176856E-02  0.792E-02    1.77       1.0  T
   7   -100.7914750 -0.277198E-03  0.375E-02    1.83       1.0  T
   8   -100.7914914 -0.164582E-04  0.140E-02    1.83       1.0  T
   9   -100.7914976 -0.616739E-05  0.474E-03    1.82       2.5  T
  10   -100.7914988 -0.118227E-05  0.172E-03    1.82       6.8  T
  11   -100.7914989 -0.139928E-06  0.766E-04    1.82      15.4  T
  12   -100.7914989 -0.773143E-08  0.318E-04    1.82      37.0  T

   *** convergence criteria satisfied after 12 iterations ***

         #    Occupation            Energy/Eh            Energy/eV
      -------------------------------------------------------------
         1        2.0000           -0.8078051             -21.9815
       ...           ...                  ...                  ...
        84        1.9966           -0.5157491             -14.0342
        85        1.9959           -0.5128261             -13.9547
        86        1.9840           -0.4911498             -13.3649
        87        1.9795           -0.4872543             -13.2589
        88        1.9640           -0.4782114             -13.0128
        89        1.8920           -0.4602041             -12.5228
        90        1.8557           -0.4553147             -12.3897 (HOMO)
        91        0.3166           -0.3884132             -10.5693 (LUMO)
        92        0.0218           -0.3434697              -9.3463
        93        0.0041           -0.3169887              -8.6257
        94        0.0034           -0.3139726              -8.5436
        95        0.0029           -0.3112618              -8.4699
       ...           ...                  ...                  ...
       171                          0.5822580              15.8440
      -------------------------------------------------------------
                  HL-Gap            0.0669015 Eh            1.8205 eV
             Fermi-level           -0.4148687 Eh          -11.2892 eV

 SCC (total)                   0 d,  0 h,  0 min,  0.190 sec
 SCC setup                      ...        0 min,  0.001 sec (  0.620%)
 Dispersion                     ...        0 min,  0.002 sec (  1.048%)
 classical contributions        ...        0 min,  0.001 sec (  0.269%)
 integral evaluation            ...        0 min,  0.018 sec (  9.628%)
 iterations                     ...        0 min,  0.098 sec ( 51.668%)
 molecular gradient             ...        0 min,  0.069 sec ( 36.432%)
 printout                       ...        0 min,  0.001 sec (  0.326%)

         :::::::::::::::::::::::::::::::::::::::::::::::::::::
         ::                     SUMMARY                     ::
         :::::::::::::::::::::::::::::::::::::::::::::::::::::
         :: total energy             -99.808990222988 Eh    ::
         :: gradient norm              0.397371797779 Eh/a0 ::
         :: HOMO-LUMO gap              1.820481192090 eV    ::
         ::.................................................::
         :: SCC energy              -100.791498925389 Eh    ::
         :: -> isotropic ES            0.109302908418 Eh    ::
         :: -> anisotropic ES          0.005415138735 Eh    ::
         :: -> anisotropic XC          0.042392697176 Eh    ::
         :: -> dispersion             -0.075527661009 Eh    ::
         :: repulsion energy           1.386151658689 Eh    ::
         :: add. restraining          -0.404859308793 Eh    ::
         :: total charge               1.000000000108 e     ::
         :::::::::::::::::::::::::::::::::::::::::::::::::::::

      ----------------------------------------------------------- 
     |                   =====================                   |
     |                        A N C O P T                        |
     |                   =====================                   |
     |               Approximate Normal Coordinate               |
     |                Rational Function Optimizer                |
      ----------------------------------------------------------- 

          ...................................................
          :                      SETUP                      :
          :.................................................:
          :   optimization level             loose          :
          :   max. optcycles                   200          :
          :   ANC micro-cycles                  20          :
          :   degrees of freedom               210          :
          :.................................................:
          :   RF solver                   davidson          :
          :   write xtbopt.log                true          :
          :   linear?                        false          :
          :   energy convergence         0.5000000E-04 Eh   :
          :   grad. convergence          0.4000000E-02 Eh/α :
          :   maxmium RF displ.          1.0000000          :
          :   Hlow (freq-cutoff)         0.1000000E-01      :
          :   Hmax (freq-cutoff)         5.0000000          :
          :   S6 in model hess.         20.0000000          :
          ...................................................

generating ANC from model Hessian ...
Using Lindh-Hessian (1995)
 Shifting diagonal of input Hessian by   0.10754078115922805     
 Lowest  eigenvalues of input Hessian
    0.010000    0.000000    0.000000    0.000000    0.000000    0.000000
    0.000000    0.107605    0.107616    0.107748    0.107882    0.107891
    0.108260    0.108608    0.108760    0.109292    0.109649    0.110033
 Highest eigenvalues
    2.134854    2.143499    2.149141    2.276984    2.282041    2.284596


........................................................................
.............................. CYCLE    1 ..............................
........................................................................

 iter      E             dE          RMSdq      gap      omega  full diag
   1   -100.7914989 -0.100791E+03  0.114E-04    1.82       0.0  T
   2   -100.7914989 -0.678995E-10  0.713E-05    1.82     165.2  T
   3   -100.7914989  0.665210E-10  0.496E-05    1.82     237.5  T
     SCC iter.                  ...        0 min,  0.026 sec
     gradient                   ...        0 min,  0.069 sec
 * total energy  :   -99.8089902 Eh     change       -0.4035485E-08 Eh
   gradient norm :     0.3973706 Eh/α   predicted     0.0000000E+00 (-100.00%)
   displ. norm   :     0.9619628 α      lambda       -0.3653166E+00
   maximum displ.:     0.9374743 α      in ANC's #1, #136, #113, ...

........................................................................
.............................. CYCLE    2 ..............................
........................................................................

 iter      E             dE          RMSdq      gap      omega  full diag
   1   -100.7522905 -0.100752E+03  0.512E-01    1.84       0.0  T
   2   -100.7544699 -0.217943E-02  0.292E-01    1.69       1.0  T
   3   -100.7529656  0.150426E-02  0.222E-01    1.96       1.0  T
   4   -100.7540799 -0.111428E-02  0.122E-01    1.63       1.0  T
   5   -100.7555712 -0.149132E-02  0.129E-02    1.79       1.0  T
   6   -100.7555833 -0.120646E-04  0.630E-03    1.77       1.9  T
   7   -100.7555848 -0.148139E-05  0.271E-03    1.77       4.4  T
   8   -100.7555850 -0.256492E-06  0.771E-04    1.77      15.3  T
   9   -100.7555850 -0.295270E-07  0.292E-04    1.77      40.4  T
     SCC iter.                  ...        0 min,  0.073 sec
     gradient                   ...        0 min,  0.069 sec
 * total energy  :  -100.2262414 Eh     change       -0.4172511E+00 Eh
   gradient norm :     0.5015152 Eh/α   predicted    -0.3516868E+00 ( -15.71%)
   displ. norm   :     0.9704770 α      lambda       -0.4729588E+00
   maximum displ.:     0.9481036 α      in ANC's #1, #136, #130, ...

........................................................................
.............................. CYCLE    3 ..............................
........................................................................

 iter      E             dE          RMSdq      gap      omega  full diag
   1   -100.6271021 -0.100627E+03  0.597E-01    1.03       0.0  T
   2   -100.6004021  0.266999E-01  0.679E-01    2.30       1.0  T
   3   -100.6459196 -0.455175E-01  0.233E-01    1.43       1.0  T
   4   -100.6457258  0.193884E-03  0.907E-02    1.36       1.0  T
   5   -100.6464887 -0.762899E-03  0.146E-02    1.47       1.0  T
   6   -100.6464979 -0.919322E-05  0.770E-03    1.46       1.5  T
   7   -100.6465000 -0.219227E-05  0.351E-03    1.47       3.4  T
   8   -100.6465007 -0.621063E-06  0.104E-03    1.47      11.3  T
   9   -100.6465007 -0.451677E-07  0.497E-04    1.47      23.7  T
  10   -100.6465007 -0.332264E-08  0.257E-04    1.47      45.8  T
     SCC iter.                  ...        0 min,  0.081 sec
     gradient                   ...        0 min,  0.072 sec
 * total energy  :  -100.7524129 Eh     change       -0.5261715E+00 Eh
   gradient norm :     0.6302463 Eh/α   predicted    -0.4592294E+00 ( -12.72%)
   displ. norm   :     0.9688219 α      lambda       -0.5904993E+00
   maximum displ.:     0.9422666 α      in ANC's #1, #136, #130, ...

........................................................................
.............................. CYCLE    4 ..............................
........................................................................

 iter      E             dE          RMSdq      gap      omega  full diag
   1   -100.4989731 -0.100499E+03  0.993E-01    0.63       0.0  T
   2   -100.4590400  0.399331E-01  0.777E-01    1.26       1.0  T
   3   -100.5061447 -0.471047E-01  0.550E-01    0.66       1.0  T
   4   -100.5279985 -0.218538E-01  0.355E-01    1.10       1.0  T
   5   -100.5391352 -0.111367E-01  0.739E-02    1.09       1.0  T
   6   -100.5395390 -0.403854E-03  0.344E-02    1.08       1.0  T
   7   -100.5395675 -0.285126E-04  0.148E-02    1.05       1.0  T
   8   -100.5395867 -0.192230E-04  0.462E-03    1.06       2.6  T
   9   -100.5395883 -0.150919E-05  0.268E-03    1.06       4.4  T
  10   -100.5395886 -0.370963E-06  0.132E-03    1.06       8.9  T
  11   -100.5395887 -0.851861E-07  0.523E-04    1.06      22.5  T
  12   -100.5395887 -0.216891E-07  0.190E-04    1.06      61.9  T
     SCC iter.                  ...        0 min,  0.097 sec
     gradient                   ...        0 min,  0.069 sec
 * total energy  :  -101.4370742 Eh     change       -0.6846613E+00 Eh
   gradient norm :     0.8593137 Eh/α   predicted    -0.5723756E+00 ( -16.40%)
   displ. norm   :     0.9590792 α      lambda       -0.7895174E+00
   maximum displ.:     0.9145448 α      in ANC's #1, #136, #129, ...

........................................................................
.............................. CYCLE    5 ..............................
........................................................................

 iter      E             dE          RMSdq      gap      omega  full diag
   1   -100.4850477 -0.100485E+03  0.892E-01    0.83       0.0  T
   2   -100.4437336  0.413142E-01  0.836E-01    0.42       1.0  T
   3   -100.4672396 -0.235061E-01  0.690E-01    1.01       1.0  T
   4   -100.4700118 -0.277221E-02  0.511E-01    0.49       1.0  T
   5   -100.5070444 -0.370325E-01  0.429E-02    0.65       1.0  T
   6   -100.5072099 -0.165511E-03  0.146E-02    0.66       1.0  T
   7   -100.5072073  0.262688E-05  0.956E-03    0.66       1.2  T
   8   -100.5072097 -0.238829E-05  0.428E-03    0.66       2.8  T
   9   -100.5072120 -0.236757E-05  0.140E-03    0.66       8.4  T
  10   -100.5072122 -0.136367E-06  0.568E-04    0.66      20.7  T
  11   -100.5072122 -0.120071E-07  0.218E-04    0.66      53.9  T
     SCC iter.                  ...        0 min,  0.089 sec
     gradient                   ...        0 min,  0.069 sec
 * total energy  :  -101.2761810 Eh     change        0.1608932E+00 Eh
   gradient norm :     4.3088804 Eh/α   predicted    -0.7578710E+00 (-571.04%)
   displ. norm   :     0.5323177 α      lambda       -0.2284612E+01
   maximum displ.:     0.4411038 α      in ANC's #1, #205, #190, ...

........................................................................
.............................. CYCLE    6 ..............................
........................................................................

 iter      E             dE          RMSdq      gap      omega  full diag
   1   -100.5312406 -0.100531E+03  0.446E-01    0.71       0.0  T
   2   -100.5143101  0.169306E-01  0.473E-01    0.97       1.0  T
   3   -100.5255104 -0.112003E-01  0.344E-01    0.66       1.0  T
   4   -100.5322435 -0.673309E-02  0.179E-01    0.74       1.0  T
   5   -100.5360596 -0.381607E-02  0.436E-02    0.77       1.0  T
   6   -100.5362396 -0.180007E-03  0.112E-02    0.76       1.1  T
   7   -100.5362445 -0.488306E-05  0.626E-03    0.76       1.9  T
   8   -100.5362464 -0.192465E-05  0.226E-03    0.76       5.2  T
   9   -100.5362471 -0.716841E-06  0.548E-04    0.76      21.5  T
  10   -100.5362471 -0.147677E-07  0.306E-04    0.76      38.5  T
     SCC iter.                  ...        0 min,  0.081 sec
     gradient                   ...        0 min,  0.069 sec
 * total energy  :  -101.7512962 Eh     change       -0.4751152E+00 Eh
   gradient norm :     0.6594350 Eh/α   predicted    -0.1466035E+01 ( 208.56%)
   displ. norm   :     0.4633246 α      lambda       -0.1180948E+00
   maximum displ.:     0.1104383 α      in ANC's #129, #96, #54, ...

........................................................................
.............................. CYCLE    7 ..............................
........................................................................

 iter      E             dE          RMSdq      gap      omega  full diag
   1   -100.5974405 -0.100597E+03  0.315E-01    0.85       0.0  T
   2   -100.5955374  0.190310E-02  0.260E-01    0.77       1.0  T
   3   -100.5978162 -0.227876E-02  0.217E-01    0.93       1.0  T
   4   -100.5949971  0.281908E-02  0.192E-01    0.74       1.0  T
   5   -100.6007017 -0.570462E-02  0.343E-02    0.88       1.0  T
   6   -100.6008261 -0.124342E-03  0.111E-02    0.87       1.1  T
   7   -100.6008300 -0.394990E-05  0.462E-03    0.87       2.5  T
   8   -100.6008316 -0.157009E-05  0.220E-03    0.87       5.4  T
   9   -100.6008321 -0.552354E-06  0.577E-04    0.87      20.4  T
  10   -100.6008321  0.353434E-08  0.372E-04    0.87      31.7  T
     SCC iter.                  ...        0 min,  0.081 sec
     gradient                   ...        0 min,  0.069 sec
 * total energy  :  -101.8307323 Eh     change       -0.7943614E-01 Eh
   gradient norm :     0.5719036 Eh/α   predicted    -0.7173023E-01 (  -9.70%)
   displ. norm   :     0.6021254 α      lambda       -0.1585677E+00
   maximum displ.:     0.3218304 α      in ANC's #1, #142, #104, ...

........................................................................
.............................. CYCLE    8 ..............................
........................................................................

 iter      E             dE          RMSdq      gap      omega  full diag
   1   -100.6398799 -0.100640E+03  0.469E-01    1.00       0.0  T
   2   -100.5982633  0.416166E-01  0.679E-01    0.46       1.0  T
   3   -100.6379045 -0.396411E-01  0.352E-01    1.02       1.0  T
   4   -100.6457625 -0.785805E-02  0.155E-01    0.82       1.0  T
   5   -100.6484003 -0.263781E-02  0.315E-02    0.86       1.0  T
   6   -100.6485246 -0.124257E-03  0.103E-02    0.87       1.1  T
   7   -100.6485272 -0.265015E-05  0.548E-03    0.87       2.2  T
   8   -100.6485299 -0.270370E-05  0.196E-03    0.87       6.0  T
   9   -100.6485302 -0.285679E-06  0.551E-04    0.87      21.4  T
  10   -100.6485302 -0.127992E-07  0.276E-04    0.87      42.7  T
     SCC iter.                  ...        0 min,  0.081 sec
     gradient                   ...        0 min,  0.071 sec
 * total energy  :  -101.9211938 Eh     change       -0.9046146E-01 Eh
   gradient norm :     0.1598011 Eh/α   predicted    -0.1080268E+00 (  19.42%)
   displ. norm   :     0.4261337 α      lambda       -0.4071387E-01
   maximum displ.:     0.1576872 α      in ANC's #43, #27, #81, ...

........................................................................
.............................. CYCLE    9 ..............................
........................................................................

 iter      E             dE          RMSdq      gap      omega  full diag
   1   -100.6676079 -0.100668E+03  0.216E-01    0.93       0.0  T
   2   -100.6654449  0.216303E-02  0.188E-01    0.79       1.0  T
   3   -100.6628033  0.264161E-02  0.232E-01    1.01       1.0  T
   4   -100.6678869 -0.508364E-02  0.587E-02    0.87       1.0  T
   5   -100.6682218 -0.334826E-03  0.174E-02    0.89       1.0  T
   6   -100.6682571 -0.353285E-04  0.510E-03    0.89       2.3  T
   7   -100.6682576 -0.465881E-06  0.291E-03    0.89       4.0  T
   8   -100.6682585 -0.966914E-06  0.107E-03    0.89      11.0  T
   9   -100.6682586 -0.100830E-06  0.334E-04    0.89      35.3  T
  10   -100.6682586 -0.456001E-08  0.164E-04    0.89      71.7  T
     SCC iter.                  ...        0 min,  0.081 sec
     gradient                   ...        0 min,  0.069 sec
 * total energy  :  -101.9544801 Eh     change       -0.3328631E-01 Eh
   gradient norm :     0.1061702 Eh/α   predicted    -0.2405364E-01 ( -27.74%)
   displ. norm   :     0.6207422 α      lambda       -0.4483779E-01
   maximum displ.:     0.1630159 α      in ANC's #43, #113, #57, ...

........................................................................
.............................. CYCLE   10 ..............................
........................................................................

 iter      E             dE          RMSdq      gap      omega  full diag
   1   -100.6938623 -0.100694E+03  0.355E-01    1.00       0.0  T
   2   -100.6840661  0.979615E-02  0.352E-01    0.69       1.0  T
   3   -100.6824044  0.166175E-02  0.364E-01    1.13       1.0  T
   4   -100.6951191 -0.127147E-01  0.387E-02    0.93       1.0  T
   5   -100.6952193 -0.100205E-03  0.153E-02    0.93       1.0  T
   6   -100.6952421 -0.228511E-04  0.638E-03    0.93       1.8  T
   7   -100.6952440 -0.189147E-05  0.282E-03    0.93       4.2  T
   8   -100.6952448 -0.751679E-06  0.970E-04    0.93      12.1  T
   9   -100.6952449 -0.750496E-07  0.424E-04    0.93      27.8  T
     SCC iter.                  ...        0 min,  0.074 sec
     gradient                   ...        0 min,  0.071 sec
 * total energy  :  -101.9746981 Eh     change       -0.2021795E-01 Eh
   gradient norm :     0.2720318 Eh/α   predicted    -0.3105744E-01 (  53.61%)
   displ. norm   :     0.2405449 α      lambda       -0.2455990E-01
   maximum displ.:     0.0886514 α      in ANC's #43, #1, #25, ...

........................................................................
.............................. CYCLE   11 ..............................
........................................................................

 iter      E             dE          RMSdq      gap      omega  full diag
   1   -100.6995612 -0.100700E+03  0.161E-01    1.03       0.0  T
   2   -100.6908731  0.868807E-02  0.289E-01    0.72       1.0  T
   3   -100.6998064 -0.893323E-02  0.110E-01    1.03       1.0  T
   4   -100.7006431 -0.836721E-03  0.340E-02    0.94       1.0  T
   5   -100.7007437 -0.100585E-03  0.676E-03    0.96       1.7  T
   6   -100.7007489 -0.521888E-05  0.279E-03    0.96       4.2  T
   7   -100.7007495 -0.592171E-06  0.125E-03    0.96       9.4  T
   8   -100.7007496 -0.919364E-07  0.461E-04    0.96      25.6  T
   9   -100.7007496 -0.143228E-07  0.184E-04    0.96      64.0  T
     SCC iter.                  ...        0 min,  0.074 sec
     gradient                   ...        0 min,  0.069 sec
 * total energy  :  -101.9867807 Eh     change       -0.1208260E-01 Eh
   gradient norm :     0.0742098 Eh/α   predicted    -0.1299054E-01 (   7.51%)
   displ. norm   :     0.2056970 α      lambda       -0.7350499E-02
   maximum displ.:     0.0465709 α      in ANC's #43, #25, #83, ...

........................................................................
.............................. CYCLE   12 ..............................
........................................................................

 iter      E             dE          RMSdq      gap      omega  full diag
   1   -100.7113553 -0.100711E+03  0.104E-01    1.03       0.0  T
   2   -100.7083372  0.301815E-02  0.171E-01    0.83       1.0  T
   3   -100.7114412 -0.310403E-02  0.664E-02    1.02       1.0  T
   4   -100.7117116 -0.270398E-03  0.105E-02    0.98       1.1  T
   5   -100.7117221 -0.105138E-04  0.364E-03    0.98       3.2  T
   6   -100.7117231 -0.100353E-05  0.177E-03    0.98       6.7  T
   7   -100.7117233 -0.141367E-06  0.682E-04    0.98      17.3  T
   8   -100.7117233 -0.474324E-07  0.223E-04    0.98      52.8  T
     SCC iter.                  ...        0 min,  0.066 sec
     gradient                   ...        0 min,  0.069 sec
 * total energy  :  -101.9928290 Eh     change       -0.6048324E-02 Eh
   gradient norm :     0.0471739 Eh/α   predicted    -0.3830769E-02 ( -36.66%)
   displ. norm   :     0.4145754 α      lambda       -0.1107243E-01
   maximum displ.:     0.1121546 α      in ANC's #41, #64, #25, ...

........................................................................
.............................. CYCLE   13 ..............................
........................................................................

 iter      E             dE          RMSdq      gap      omega  full diag
   1   -100.7289183 -0.100729E+03  0.183E-01    1.06       0.0  T
   2   -100.7207115  0.820679E-02  0.292E-01    0.77       1.0  T
   3   -100.7294885 -0.877701E-02  0.114E-01    1.07       1.0  T
   4   -100.7299742 -0.485718E-03  0.426E-02    1.01       1.0  T
   5   -100.7301611 -0.186946E-03  0.831E-03    1.01       1.4  T
   6   -100.7301666 -0.546195E-05  0.383E-03    1.01       3.1  T
   7   -100.7301674 -0.831811E-06  0.155E-03    1.01       7.6  T
   8   -100.7301676 -0.176256E-06  0.472E-04    1.01      25.0  T
   9   -100.7301676 -0.114582E-07  0.253E-04    1.01      46.5  T
     SCC iter.                  ...        0 min,  0.073 sec
     gradient                   ...        0 min,  0.069 sec
 * total energy  :  -101.9995689 Eh     change       -0.6739913E-02 Eh
   gradient norm :     0.0459285 Eh/α   predicted    -0.6487748E-02 (  -3.74%)
   displ. norm   :     0.2091096 α      lambda       -0.2633529E-02
   maximum displ.:     0.0641234 α      in ANC's #41, #25, #26, ...

........................................................................
.............................. CYCLE   14 ..............................
........................................................................

 iter      E             dE          RMSdq      gap      omega  full diag
   1   -100.7350115 -0.100735E+03  0.800E-02    1.05       0.0  T
   2   -100.7339884  0.102313E-02  0.105E-01    0.94       1.0  T
   3   -100.7348588 -0.870378E-03  0.607E-02    1.06       1.0  T
   4   -100.7351437 -0.284935E-03  0.663E-03    1.02       1.8  T
   5   -100.7351475 -0.376618E-05  0.268E-03    1.02       4.4  T
   6   -100.7351479 -0.388440E-06  0.133E-03    1.02       8.8  T
   7   -100.7351479 -0.714497E-07  0.499E-04    1.02      23.6  T
   8   -100.7351480 -0.251406E-07  0.160E-04    1.02      73.4  T
     SCC iter.                  ...        0 min,  0.065 sec
     gradient                   ...        0 min,  0.069 sec
 * total energy  :  -102.0016201 Eh     change       -0.2051196E-02 Eh
   gradient norm :     0.0319322 Eh/α   predicted    -0.1374385E-02 ( -33.00%)
   displ. norm   :     0.3279213 α      lambda       -0.3571404E-02
   maximum displ.:     0.0996614 α      in ANC's #25, #41, #26, ...

........................................................................
.............................. CYCLE   15 ..............................
........................................................................

 iter      E             dE          RMSdq      gap      omega  full diag
   1   -100.7408967 -0.100741E+03  0.116E-01    1.04       0.0  T
   2   -100.7402008  0.695984E-03  0.103E-01    0.95       1.0  T
   3   -100.7394402  0.760597E-03  0.124E-01    1.10       1.0  T
   4   -100.7409879 -0.154771E-02  0.917E-03    1.02       1.3  T
   5   -100.7409985 -0.106433E-04  0.361E-03    1.02       3.3  T
   6   -100.7409992 -0.728166E-06  0.179E-03    1.02       6.6  T
   7   -100.7409995 -0.230109E-06  0.488E-04    1.02      24.2  T
   8   -100.7409995 -0.177177E-07  0.210E-04    1.02      56.2  T
     SCC iter.                  ...        0 min,  0.065 sec
     gradient                   ...        0 min,  0.069 sec
 * total energy  :  -102.0041789 Eh     change       -0.2558807E-02 Eh
   gradient norm :     0.0180208 Eh/α   predicted    -0.1977730E-02 ( -22.71%)
   displ. norm   :     0.2932034 α      lambda       -0.2185217E-02
   maximum displ.:     0.0866210 α      in ANC's #25, #26, #41, ...

........................................................................
.............................. CYCLE   16 ..............................
........................................................................

 iter      E             dE          RMSdq      gap      omega  full diag
   1   -100.7429485 -0.100743E+03  0.991E-02    1.02       0.0  T
   2   -100.7428373  0.111159E-03  0.649E-02    0.99       1.0  T
   3   -100.7409656  0.187173E-02  0.132E-01    1.10       1.0  T
   4   -100.7429666 -0.200099E-02  0.697E-03    1.02       1.7  T
   5   -100.7429727 -0.611499E-05  0.310E-03    1.01       3.8  T
   6   -100.7429733 -0.584219E-06  0.140E-03    1.01       8.4  T
   7   -100.7429734 -0.144707E-06  0.338E-04    1.01      34.8  T
   8   -100.7429734 -0.553838E-08  0.162E-04    1.01      72.9  T
     SCC iter.                  ...        0 min,  0.065 sec
     gradient                   ...        0 min,  0.069 sec
 * total energy  :  -102.0057477 Eh     change       -0.1568784E-02 Eh
   gradient norm :     0.0201095 Eh/α   predicted    -0.1186545E-02 ( -24.37%)
   displ. norm   :     0.2651053 α      lambda       -0.1519701E-02
   maximum displ.:     0.0754920 α      in ANC's #25, #26, #33, ...

........................................................................
.............................. CYCLE   17 ..............................
........................................................................

 iter      E             dE          RMSdq      gap      omega  full diag
   1   -100.7439104 -0.100744E+03  0.818E-02    1.00       0.0  T
   2   -100.7438998  0.105390E-04  0.489E-02    1.00       1.0  T
   3   -100.7431177  0.782138E-03  0.811E-02    1.06       1.0  T
   4   -100.7439148 -0.797053E-03  0.111E-02    1.00       1.1  T
   5   -100.7439255 -0.107364E-04  0.224E-03    1.01       5.3  T
   6   -100.7439255 -0.597193E-08  0.112E-03    1.00      10.5  T
   7   -100.7439256 -0.682179E-07  0.341E-04    1.00      34.6  T
   8   -100.7439256 -0.918106E-08  0.134E-04    1.00      88.1  T
     SCC iter.                  ...        0 min,  0.065 sec
     gradient                   ...        0 min,  0.069 sec
 * total energy  :  -102.0068639 Eh     change       -0.1116226E-02 Eh
   gradient norm :     0.0271430 Eh/α   predicted    -0.8132998E-03 ( -27.14%)
   displ. norm   :     0.2798186 α      lambda       -0.1405527E-02
   maximum displ.:     0.0786275 α      in ANC's #25, #30, #26, ...

........................................................................
.............................. CYCLE   18 ..............................
........................................................................

 iter      E             dE          RMSdq      gap      omega  full diag
   1   -100.7440852 -0.100744E+03  0.806E-02    1.01       0.0  T
   2   -100.7440599  0.253299E-04  0.492E-02    0.99       1.0  T
   3   -100.7430433  0.101657E-02  0.943E-02    1.07       1.0  T
   4   -100.7440929 -0.104965E-02  0.871E-03    1.00       1.4  T
   5   -100.7440997 -0.671532E-05  0.209E-03    1.00       5.6  T
   6   -100.7440997 -0.289621E-07  0.101E-03    1.00      11.7  T
   7   -100.7440997 -0.375571E-07  0.330E-04    1.00      35.7  T
   8   -100.7440997 -0.768178E-08  0.123E-04    1.00      95.9  T
     SCC iter.                  ...        0 min,  0.065 sec
     gradient                   ...        0 min,  0.070 sec
 * total energy  :  -102.0078959 Eh     change       -0.1031984E-02 Eh
   gradient norm :     0.0183849 Eh/α   predicted    -0.7578207E-03 ( -26.57%)
   displ. norm   :     0.3276329 α      lambda       -0.1666235E-02
   maximum displ.:     0.1076171 α      in ANC's #30, #37, #32, ...

........................................................................
.............................. CYCLE   19 ..............................
........................................................................

 iter      E             dE          RMSdq      gap      omega  full diag
   1   -100.7450383 -0.100745E+03  0.842E-02    1.00       0.0  T
   2   -100.7450462 -0.786881E-05  0.489E-02    1.01       1.0  T
   3   -100.7450225  0.237084E-04  0.188E-02    1.00       1.0  T
   4   -100.7450420 -0.195122E-04  0.898E-03    1.01       1.3  T
   5   -100.7450491 -0.707915E-05  0.420E-03    1.01       2.8  T
   6   -100.7450508 -0.173191E-05  0.126E-03    1.01       9.4  T
   7   -100.7450509 -0.680072E-07  0.413E-04    1.01      28.5  T
   8   -100.7450509 -0.113972E-07  0.161E-04    1.01      73.1  T
     SCC iter.                  ...        0 min,  0.065 sec
     gradient                   ...        0 min,  0.069 sec
 * total energy  :  -102.0089830 Eh     change       -0.1087064E-02 Eh
   gradient norm :     0.0438113 Eh/α   predicted    -0.9225562E-03 ( -15.13%)
   displ. norm   :     0.3340344 α      lambda       -0.1737567E-02
   maximum displ.:     0.1118883 α      in ANC's #30, #37, #25, ...

........................................................................
.............................. CYCLE   20 ..............................
........................................................................

 iter      E             dE          RMSdq      gap      omega  full diag
   1   -100.7453976 -0.100745E+03  0.911E-02    1.03       0.0  T
   2   -100.7453318  0.657107E-04  0.582E-02    1.00       1.0  T
   3   -100.7439407  0.139113E-02  0.113E-01    1.10       1.0  T
   4   -100.7454086 -0.146787E-02  0.795E-03    1.02       1.5  T
   5   -100.7454154 -0.680102E-05  0.224E-03    1.02       5.3  T
   6   -100.7454155 -0.122828E-06  0.124E-03    1.02       9.5  T
   7   -100.7454156 -0.931527E-07  0.466E-04    1.02      25.3  T
   8   -100.7454156 -0.148786E-07  0.162E-04    1.02      72.7  T
     SCC iter.                  ...        0 min,  0.064 sec
     gradient                   ...        0 min,  0.069 sec
 * total energy  :  -102.0102134 Eh     change       -0.1230441E-02 Eh
   gradient norm :     0.0216581 Eh/α   predicted    -0.9657420E-03 ( -21.51%)
   displ. norm   :     0.3409154 α      lambda       -0.1774876E-02
   maximum displ.:     0.1287478 α      in ANC's #30, #37, #32, ...
 * RMSD in coord.:     0.6039690 α      energy gain  -0.2201223E+01 Eh

generating ANC from model Hessian ...
Using Lindh-Hessian (1995)
 Shifting diagonal of input Hessian by    9.9541422735210886E-003
 Lowest  eigenvalues of input Hessian
    0.000000    0.000000    0.000000    0.000000    0.000000    0.000000
    0.010000    0.010016    0.010103    0.010195    0.010303    0.010530
    0.010776    0.010823    0.011221    0.011483    0.011823    0.012467
 Highest eigenvalues
    2.118593    2.176204    2.182815    2.184637    2.288821    2.404135


........................................................................
.............................. CYCLE   21 ..............................
........................................................................

 iter      E             dE          RMSdq      gap      omega  full diag
   1   -100.7475298 -0.100748E+03  0.921E-02    1.05       0.0  T
   2   -100.7475116  0.181742E-04  0.549E-02    1.03       1.0  T
   3   -100.7466419  0.869710E-03  0.865E-02    1.11       1.0  T
   4   -100.7475285 -0.886586E-03  0.104E-02    1.04       1.1  T
   5   -100.7475416 -0.131390E-04  0.219E-03    1.04       5.4  T
   6   -100.7475418 -0.194592E-06  0.111E-03    1.04      10.6  T
   7   -100.7475419 -0.365569E-07  0.461E-04    1.04      25.6  T
   8   -100.7475419 -0.119294E-07  0.165E-04    1.04      71.5  T
     SCC iter.                  ...        0 min,  0.065 sec
     gradient                   ...        0 min,  0.069 sec
 * total energy  :  -102.0116132 Eh     change       -0.1399754E-02 Eh
   gradient norm :     0.0182162 Eh/α   predicted     0.0000000E+00 (-100.00%)
   displ. norm   :     0.3138320 α      lambda       -0.2505462E-02
   maximum displ.:     0.1348989 α      in ANC's #7, #19, #26, ...

........................................................................
.............................. CYCLE   22 ..............................
........................................................................

 iter      E             dE          RMSdq      gap      omega  full diag
   1   -100.7514502 -0.100751E+03  0.899E-02    1.05       0.0  T
   2   -100.7514545 -0.430152E-05  0.525E-02    1.04       1.0  T
   3   -100.7513708  0.836701E-04  0.235E-02    1.07       1.0  T
   4   -100.7514394 -0.685400E-04  0.141E-02    1.04       1.0  T
   5   -100.7514606 -0.211722E-04  0.355E-03    1.05       3.3  T
   6   -100.7514617 -0.114581E-05  0.117E-03    1.05      10.1  T
   7   -100.7514617 -0.336475E-07  0.435E-04    1.05      27.1  T
   8   -100.7514617 -0.122553E-07  0.168E-04    1.05      70.1  T
     SCC iter.                  ...        0 min,  0.065 sec
     gradient                   ...        0 min,  0.069 sec
 * total energy  :  -102.0137097 Eh     change       -0.2096566E-02 Eh
   gradient norm :     0.0177919 Eh/α   predicted    -0.1376168E-02 ( -34.36%)
   displ. norm   :     0.6914652 α      lambda       -0.4065856E-02
   maximum displ.:     0.3028328 α      in ANC's #7, #26, #19, ...

........................................................................
.............................. CYCLE   23 ..............................
........................................................................

 iter      E             dE          RMSdq      gap      omega  full diag
   1   -100.7527197 -0.100753E+03  0.195E-01    1.08       0.0  T
   2   -100.7527335 -0.137570E-04  0.115E-01    1.06       1.0  T
   3   -100.7523022  0.431320E-03  0.580E-02    1.09       1.0  T
   4   -100.7527419 -0.439794E-03  0.178E-02    1.08       1.0  T
   5   -100.7527692 -0.272088E-04  0.752E-03    1.06       1.6  T
   6   -100.7527753 -0.618868E-05  0.264E-03    1.07       4.5  T
   7   -100.7527757 -0.338619E-06  0.788E-04    1.07      15.0  T
   8   -100.7527757 -0.218508E-07  0.335E-04    1.07      35.1  T
     SCC iter.                  ...        0 min,  0.066 sec
     gradient                   ...        0 min,  0.075 sec
 * total energy  :  -102.0165595 Eh     change       -0.2849790E-02 Eh
   gradient norm :     0.0437595 Eh/α   predicted    -0.3004933E-02 (   5.44%)
   displ. norm   :     0.6437172 α      lambda       -0.3261969E-02
   maximum displ.:     0.3011535 α      in ANC's #7, #26, #19, ...

........................................................................
.............................. CYCLE   24 ..............................
........................................................................

 iter      E             dE          RMSdq      gap      omega  full diag
   1   -100.7508265 -0.100751E+03  0.167E-01    1.09       0.0  T
   2   -100.7508299 -0.342881E-05  0.988E-02    1.07       1.0  T
   3   -100.7503556  0.474258E-03  0.635E-02    1.09       1.0  T
   4   -100.7508123 -0.456632E-03  0.225E-02    1.10       1.0  T
   5   -100.7508664 -0.541843E-04  0.406E-03    1.08       2.9  T
   6   -100.7508678 -0.131247E-05  0.228E-03    1.08       5.2  T
   7   -100.7508681 -0.306620E-06  0.714E-04    1.08      16.5  T
   8   -100.7508681 -0.139613E-07  0.251E-04    1.08      46.9  T
     SCC iter.                  ...        0 min,  0.065 sec
     gradient                   ...        0 min,  0.069 sec
 * total energy  :  -102.0187274 Eh     change       -0.2167903E-02 Eh
   gradient norm :     0.0432250 Eh/α   predicted    -0.2306860E-02 (   6.41%)
   displ. norm   :     0.5096912 α      lambda       -0.2679889E-02
   maximum displ.:     0.2715157 α      in ANC's #7, #26, #16, ...

........................................................................
.............................. CYCLE   25 ..............................
........................................................................

 iter      E             dE          RMSdq      gap      omega  full diag
   1   -100.7541629 -0.100754E+03  0.109E-01    1.10       0.0  T
   2   -100.7541638 -0.892530E-06  0.634E-02    1.08       1.0  T
   3   -100.7539376  0.226235E-03  0.428E-02    1.13       1.0  T
   4   -100.7541504 -0.212813E-03  0.169E-02    1.08       1.0  T
   5   -100.7541821 -0.317587E-04  0.284E-03    1.09       4.1  T
   6   -100.7541828 -0.664741E-06  0.115E-03    1.09      10.2  T
   7   -100.7541828 -0.977481E-08  0.643E-04    1.09      18.3  T
   8   -100.7541828 -0.208155E-07  0.206E-04    1.09      57.1  T
     SCC iter.                  ...        0 min,  0.065 sec
     gradient                   ...        0 min,  0.069 sec
 * total energy  :  -102.0210818 Eh     change       -0.2354375E-02 Eh
   gradient norm :     0.0335815 Eh/α   predicted    -0.1688044E-02 ( -28.30%)
   displ. norm   :     0.6188321 α      lambda       -0.3741248E-02
   maximum displ.:     0.3349333 α      in ANC's #7, #26, #3, ...

........................................................................
.............................. CYCLE   26 ..............................
........................................................................

 iter      E             dE          RMSdq      gap      omega  full diag
   1   -100.7628814 -0.100763E+03  0.137E-01    1.09       0.0  T
   2   -100.7628954 -0.139217E-04  0.803E-02    1.08       1.0  T
   3   -100.7627591  0.136270E-03  0.363E-02    1.11       1.0  T
   4   -100.7629024 -0.143273E-03  0.818E-03    1.08       1.4  T
   5   -100.7629086 -0.627645E-05  0.522E-03    1.09       2.3  T
   6   -100.7629112 -0.250821E-05  0.273E-03    1.09       4.3  T
   7   -100.7629116 -0.469725E-06  0.866E-04    1.09      13.6  T
   8   -100.7629117 -0.237879E-07  0.408E-04    1.09      28.9  T
     SCC iter.                  ...        0 min,  0.065 sec
     gradient                   ...        0 min,  0.069 sec
 * total energy  :  -102.0238407 Eh     change       -0.2758924E-02 Eh
   gradient norm :     0.0139545 Eh/α   predicted    -0.2587000E-02 (  -6.23%)
   displ. norm   :     0.7796405 α      lambda       -0.2601127E-02
   maximum displ.:     0.4022312 α      in ANC's #7, #26, #16, ...

........................................................................
.............................. CYCLE   27 ..............................
........................................................................

 iter      E             dE          RMSdq      gap      omega  full diag
   1   -100.7552033 -0.100755E+03  0.160E-01    1.06       0.0  T
   2   -100.7551403  0.629787E-04  0.105E-01    1.09       1.0  T
   3   -100.7535603  0.157999E-02  0.125E-01    0.99       1.0  T
   4   -100.7552181 -0.165773E-02  0.176E-02    1.08       1.0  T
   5   -100.7552517 -0.336563E-04  0.457E-03    1.07       2.6  T
   6   -100.7552529 -0.114995E-05  0.279E-03    1.07       4.2  T
   7   -100.7552534 -0.516818E-06  0.118E-03    1.07      10.0  T
   8   -100.7552534 -0.617805E-07  0.372E-04    1.07      31.7  T
   9   -100.7552535 -0.735216E-08  0.158E-04    1.07      74.8  T
     SCC iter.                  ...        0 min,  0.073 sec
     gradient                   ...        0 min,  0.069 sec
 * total energy  :  -102.0255072 Eh     change       -0.1666520E-02 Eh
   gradient norm :     0.0316843 Eh/α   predicted    -0.2091105E-02 (  25.48%)
   displ. norm   :     0.4812017 α      lambda       -0.1909435E-02
   maximum displ.:     0.2987589 α      in ANC's #7, #3, #9, ...

........................................................................
.............................. CYCLE   28 ..............................
........................................................................

 iter      E             dE          RMSdq      gap      omega  full diag
   1   -100.7605167 -0.100761E+03  0.826E-02    1.05       0.0  T
   2   -100.7605190 -0.227663E-05  0.489E-02    1.06       1.0  T
   3   -100.7603668  0.152203E-03  0.402E-02    1.02       1.0  T
   4   -100.7605193 -0.152472E-03  0.895E-03    1.06       1.3  T
   5   -100.7605276 -0.832541E-05  0.272E-03    1.06       4.3  T
   6   -100.7605280 -0.440622E-06  0.116E-03    1.06      10.1  T
   7   -100.7605281 -0.462898E-07  0.523E-04    1.06      22.5  T
   8   -100.7605281 -0.963048E-08  0.225E-04    1.06      52.3  T
     SCC iter.                  ...        0 min,  0.066 sec
     gradient                   ...        0 min,  0.069 sec
 * total energy  :  -102.0269654 Eh     change       -0.1458151E-02 Eh
   gradient norm :     0.0196478 Eh/α   predicted    -0.1175812E-02 ( -19.36%)
   displ. norm   :     0.5540887 α      lambda       -0.1676479E-02
   maximum displ.:     0.3481692 α      in ANC's #7, #3, #9, ...

........................................................................
.............................. CYCLE   29 ..............................
........................................................................

 iter      E             dE          RMSdq      gap      omega  full diag
   1   -100.7671040 -0.100767E+03  0.903E-02    1.03       0.0  T
   2   -100.7671048 -0.754199E-06  0.539E-02    1.05       1.0  T
   3   -100.7669169  0.187836E-03  0.431E-02    0.99       1.0  T
   4   -100.7671060 -0.189119E-03  0.939E-03    1.04       1.3  T
   5   -100.7671155 -0.946843E-05  0.237E-03    1.04       5.0  T
   6   -100.7671157 -0.162701E-06  0.138E-03    1.04       8.5  T
   7   -100.7671158 -0.110679E-06  0.549E-04    1.04      21.5  T
   8   -100.7671158 -0.255619E-07  0.250E-04    1.04      47.1  T
     SCC iter.                  ...        0 min,  0.065 sec
     gradient                   ...        0 min,  0.069 sec
 * total energy  :  -102.0282554 Eh     change       -0.1290018E-02 Eh
   gradient norm :     0.0130994 Eh/α   predicted    -0.1095592E-02 ( -15.07%)
   displ. norm   :     0.6768358 α      lambda       -0.1593728E-02
   maximum displ.:     0.4174175 α      in ANC's #7, #3, #9, ...

........................................................................
.............................. CYCLE   30 ..............................
........................................................................

 iter      E             dE          RMSdq      gap      omega  full diag
   1   -100.7671568 -0.100767E+03  0.975E-02    1.00       0.0  T
   2   -100.7671050  0.517256E-04  0.640E-02    1.04       1.0  T
   3   -100.7666025  0.502543E-03  0.786E-02    0.95       1.0  T
   4   -100.7671767 -0.574187E-03  0.843E-03    1.02       1.4  T
   5   -100.7671861 -0.943053E-05  0.203E-03    1.02       5.8  T
   6   -100.7671861  0.766082E-08  0.123E-03    1.02       9.6  T
   7   -100.7671862 -0.102180E-06  0.501E-04    1.02      23.5  T
   8   -100.7671862 -0.227034E-07  0.229E-04    1.02      51.4  T
     SCC iter.                  ...        0 min,  0.065 sec
     gradient                   ...        0 min,  0.069 sec
 * total energy  :  -102.0293594 Eh     change       -0.1103983E-02 Eh
   gradient norm :     0.0147371 Eh/α   predicted    -0.1161919E-02 (   5.25%)
   displ. norm   :     0.5565736 α      lambda       -0.1100194E-02
   maximum displ.:     0.3321929 α      in ANC's #7, #3, #9, ...

........................................................................
.............................. CYCLE   31 ..............................
........................................................................

 iter      E             dE          RMSdq      gap      omega  full diag
   1   -100.7690962 -0.100769E+03  0.821E-02    1.00       0.0  T
   2   -100.7690951  0.106819E-05  0.491E-02    1.02       1.0  T
   3   -100.7689262  0.168900E-03  0.407E-02    0.97       1.0  T
   4   -100.7690958 -0.169652E-03  0.969E-03    1.01       1.2  T
   5   -100.7691048 -0.900477E-05  0.191E-03    1.01       6.2  T
   6   -100.7691049 -0.697846E-07  0.131E-03    1.01       9.0  T
   7   -100.7691051 -0.142716E-06  0.468E-04    1.01      25.2  T
   8   -100.7691051 -0.122073E-07  0.194E-04    1.01      60.8  T
     SCC iter.                  ...        0 min,  0.065 sec
     gradient                   ...        0 min,  0.069 sec
 * total energy  :  -102.0302031 Eh     change       -0.8437045E-03 Eh
   gradient norm :     0.0103254 Eh/α   predicted    -0.7205036E-03 ( -14.60%)
   displ. norm   :     0.5511566 α      lambda       -0.8487831E-03
   maximum displ.:     0.3033566 α      in ANC's #7, #3, #18, ...

........................................................................
.............................. CYCLE   32 ..............................
........................................................................

 iter      E             dE          RMSdq      gap      omega  full diag
   1   -100.7730962 -0.100773E+03  0.753E-02    1.00       0.0  T
   2   -100.7730971 -0.898174E-06  0.445E-02    1.01       1.0  T
   3   -100.7730048  0.922322E-04  0.322E-02    0.98       1.0  T
   4   -100.7730952 -0.903262E-04  0.845E-03    1.01       1.4  T
   5   -100.7731024 -0.722263E-05  0.159E-03    1.00       7.4  T
   6   -100.7731025 -0.641151E-07  0.731E-04    1.00      16.1  T
   7   -100.7731025 -0.120050E-07  0.296E-04    1.00      39.8  T
     SCC iter.                  ...        0 min,  0.058 sec
     gradient                   ...        0 min,  0.069 sec
 * total energy  :  -102.0308623 Eh     change       -0.6591811E-03 Eh
   gradient norm :     0.0102051 Eh/α   predicted    -0.5533114E-03 ( -16.06%)
   displ. norm   :     0.6441688 α      lambda       -0.8130939E-03
   maximum displ.:     0.3414893 α      in ANC's #7, #3, #6, ...

........................................................................
.............................. CYCLE   33 ..............................
........................................................................

 iter      E             dE          RMSdq      gap      omega  full diag
   1   -100.7661938 -0.100766E+03  0.880E-02    0.99       0.0  T
   2   -100.7661940 -0.178741E-06  0.530E-02    1.00       1.0  T
   3   -100.7660217  0.172278E-03  0.407E-02    0.97       1.0  T
   4   -100.7661976 -0.175907E-03  0.694E-03    1.00       1.7  T
   5   -100.7662015 -0.383542E-05  0.194E-03    1.00       6.1  T
   6   -100.7662016 -0.101819E-06  0.102E-03    1.00      11.5  T
   7   -100.7662016 -0.106042E-07  0.353E-04    1.00      33.4  T
   8   -100.7662016 -0.946396E-08  0.193E-04    1.00      61.0  T
     SCC iter.                  ...        0 min,  0.065 sec
     gradient                   ...        0 min,  0.069 sec
 * total energy  :  -102.0313472 Eh     change       -0.4849574E-03 Eh
   gradient norm :     0.0130026 Eh/α   predicted    -0.5752473E-03 (  18.62%)
   displ. norm   :     0.4322937 α      lambda       -0.8203505E-03
   maximum displ.:     0.1892626 α      in ANC's #3, #18, #7, ...

........................................................................
.............................. CYCLE   34 ..............................
........................................................................

 iter      E             dE          RMSdq      gap      omega  full diag
   1   -100.7745272 -0.100775E+03  0.718E-02    1.02       0.0  T
   2   -100.7745380 -0.107906E-04  0.448E-02    1.00       1.0  T
   3   -100.7744798  0.581332E-04  0.302E-02    1.03       1.0  T
   4   -100.7745474 -0.675640E-04  0.106E-02    1.00       1.1  T
   5   -100.7745592 -0.117826E-04  0.431E-03    1.01       2.7  T
   6   -100.7745609 -0.166524E-05  0.227E-03    1.01       5.2  T
   7   -100.7745612 -0.320345E-06  0.688E-04    1.01      17.1  T
   8   -100.7745612 -0.198060E-07  0.295E-04    1.01      40.0  T
     SCC iter.                  ...        0 min,  0.066 sec
     gradient                   ...        0 min,  0.075 sec
 * total energy  :  -102.0317785 Eh     change       -0.4312436E-03 Eh
   gradient norm :     0.0129653 Eh/α   predicted    -0.4868284E-03 (  12.89%)
   displ. norm   :     0.4030012 α      lambda       -0.4676466E-03
   maximum displ.:     0.1781568 α      in ANC's #3, #7, #6, ...

........................................................................
.............................. CYCLE   35 ..............................
........................................................................

 iter      E             dE          RMSdq      gap      omega  full diag
   1   -100.7731401 -0.100773E+03  0.555E-02    1.00       0.0  T
   2   -100.7731442 -0.403827E-05  0.330E-02    1.00       1.0  T
   3   -100.7731366  0.759762E-05  0.116E-02    1.00       1.0  T
   4   -100.7731432 -0.667134E-05  0.537E-03    1.01       2.2  T
   5   -100.7731456 -0.239903E-05  0.151E-03    1.00       7.8  T
   6   -100.7731457 -0.988827E-07  0.827E-04    1.00      14.2  T
   7   -100.7731458 -0.338145E-07  0.298E-04    1.00      39.6  T
     SCC iter.                  ...        0 min,  0.058 sec
     gradient                   ...        0 min,  0.069 sec
 * total energy  :  -102.0320224 Eh     change       -0.2439593E-03 Eh
   gradient norm :     0.0110309 Eh/α   predicted    -0.2717995E-03 (  11.41%)
   displ. norm   :     0.3075894 α      lambda       -0.3855004E-03
   maximum displ.:     0.1418602 α      in ANC's #3, #2, #6, ...

........................................................................
.............................. CYCLE   36 ..............................
........................................................................

 iter      E             dE          RMSdq      gap      omega  full diag
   1   -100.7717441 -0.100772E+03  0.419E-02    1.01       0.0  T
   2   -100.7717460 -0.197140E-05  0.245E-02    1.00       1.0  T
   3   -100.7717432  0.280556E-05  0.651E-03    1.01       1.8  T
   4   -100.7717446 -0.133032E-05  0.449E-03    1.00       2.6  T
   5   -100.7717464 -0.186240E-05  0.111E-03    1.01      10.6  T
   6   -100.7717465 -0.656323E-07  0.613E-04    1.00      19.2  T
   7   -100.7717465 -0.104468E-07  0.198E-04    1.00      59.5  T
     SCC iter.                  ...        0 min,  0.058 sec
     gradient                   ...        0 min,  0.069 sec
 * total energy  :  -102.0322778 Eh     change       -0.2553953E-03 Eh
   gradient norm :     0.0105499 Eh/α   predicted    -0.2109874E-03 ( -17.39%)
   displ. norm   :     0.3040389 α      lambda       -0.4645991E-03
   maximum displ.:     0.1339551 α      in ANC's #2, #3, #11, ...

........................................................................
.............................. CYCLE   37 ..............................
........................................................................

 iter      E             dE          RMSdq      gap      omega  full diag
   1   -100.7752565 -0.100775E+03  0.475E-02    1.01       0.0  T
   2   -100.7752596 -0.309929E-05  0.280E-02    1.01       1.0  T
   3   -100.7752343  0.252735E-04  0.172E-02    1.02       1.0  T
   4   -100.7752614 -0.271493E-04  0.354E-03    1.00       3.3  T
   5   -100.7752626 -0.115904E-05  0.252E-03    1.01       4.7  T
   6   -100.7752632 -0.631767E-06  0.961E-04    1.01      12.3  T
   7   -100.7752633 -0.365497E-07  0.493E-04    1.01      23.9  T
     SCC iter.                  ...        0 min,  0.058 sec
     gradient                   ...        0 min,  0.069 sec
 * total energy  :  -102.0325241 Eh     change       -0.2462999E-03 Eh
   gradient norm :     0.0109091 Eh/α   predicted    -0.2537772E-03 (   3.04%)
   displ. norm   :     0.4608352 α      lambda       -0.4457123E-03
   maximum displ.:     0.2142314 α      in ANC's #3, #2, #6, ...

........................................................................
.............................. CYCLE   38 ..............................
........................................................................

 iter      E             dE          RMSdq      gap      omega  full diag
   1   -100.7739075 -0.100774E+03  0.683E-02    1.02       0.0  T
   2   -100.7739071  0.382206E-06  0.412E-02    1.00       1.0  T
   3   -100.7737648  0.142253E-03  0.376E-02    1.05       1.0  T
   4   -100.7739106 -0.145783E-03  0.774E-03    1.01       1.5  T
   5   -100.7739159 -0.525433E-05  0.252E-03    1.01       4.7  T
   6   -100.7739163 -0.483175E-06  0.113E-03    1.01      10.5  T
   7   -100.7739164 -0.546087E-07  0.580E-04    1.01      20.3  T
   8   -100.7739164 -0.308515E-07  0.148E-04    1.01      79.7  T
     SCC iter.                  ...        0 min,  0.067 sec
     gradient                   ...        0 min,  0.069 sec
 * total energy  :  -102.0327283 Eh     change       -0.2041284E-03 Eh
   gradient norm :     0.0131693 Eh/α   predicted    -0.2701856E-03 (  32.36%)
   displ. norm   :     0.1922873 α      lambda       -0.3309725E-03
   maximum displ.:     0.0987512 α      in ANC's #2, #3, #6, ...

........................................................................
.............................. CYCLE   39 ..............................
........................................................................

 iter      E             dE          RMSdq      gap      omega  full diag
   1   -100.7758268 -0.100776E+03  0.282E-02    1.02       0.0  T
   2   -100.7758276 -0.836535E-06  0.172E-02    1.01       1.0  T
   3   -100.7758098  0.177974E-04  0.148E-02    1.02       1.0  T
   4   -100.7758269 -0.170637E-04  0.495E-03    1.01       2.4  T
   5   -100.7758293 -0.241351E-05  0.100E-03    1.01      11.7  T
   6   -100.7758294 -0.599129E-07  0.455E-04    1.01      25.9  T
   7   -100.7758294 -0.764700E-09  0.250E-04    1.01      47.1  T
     SCC iter.                  ...        0 min,  0.057 sec
     gradient                   ...        0 min,  0.070 sec
 * total energy  :  -102.0329560 Eh     change       -0.2277105E-03 Eh
   gradient norm :     0.0087660 Eh/α   predicted    -0.1716091E-03 ( -24.64%)
   displ. norm   :     0.3443844 α      lambda       -0.3051820E-03
   maximum displ.:     0.1783123 α      in ANC's #3, #2, #6, ...

........................................................................
.............................. CYCLE   40 ..............................
........................................................................

 iter      E             dE          RMSdq      gap      omega  full diag
   1   -100.7747019 -0.100775E+03  0.455E-02    1.01       0.0  T
   2   -100.7747039 -0.200464E-05  0.272E-02    1.02       1.0  T
   3   -100.7746887  0.152892E-04  0.148E-02    1.01       1.0  T
   4   -100.7747061 -0.174769E-04  0.250E-03    1.02       4.7  T
   5   -100.7747068 -0.641380E-06  0.101E-03    1.01      11.7  T
   6   -100.7747068 -0.367208E-07  0.786E-04    1.02      15.0  T
   7   -100.7747068 -0.362735E-07  0.395E-04    1.02      29.8  T
     SCC iter.                  ...        0 min,  0.057 sec
     gradient                   ...        0 min,  0.069 sec
 * total energy  :  -102.0331566 Eh     change       -0.2006652E-03 Eh
   gradient norm :     0.0077538 Eh/α   predicted    -0.1706976E-03 ( -14.93%)
   displ. norm   :     0.3761110 α      lambda       -0.2668677E-03
   maximum displ.:     0.2071967 α      in ANC's #2, #3, #6, ...

........................................................................
.............................. CYCLE   41 ..............................
........................................................................

 iter      E             dE          RMSdq      gap      omega  full diag
   1   -100.7767312 -0.100777E+03  0.485E-02    1.02       0.0  T
   2   -100.7767321 -0.910964E-06  0.289E-02    1.02       1.0  T
   3   -100.7767044  0.277149E-04  0.149E-02    1.03       1.0  T
   4   -100.7767323 -0.278893E-04  0.403E-03    1.01       2.9  T
   5   -100.7767340 -0.168224E-05  0.210E-03    1.02       5.6  T
   6   -100.7767343 -0.309283E-06  0.697E-04    1.02      16.9  T
   7   -100.7767343 -0.209321E-07  0.302E-04    1.02      39.0  T
     SCC iter.                  ...        0 min,  0.057 sec
     gradient                   ...        0 min,  0.069 sec
 * total energy  :  -102.0332963 Eh     change       -0.1396414E-03 Eh
   gradient norm :     0.0085897 Eh/α   predicted    -0.1523142E-03 (   9.08%)
   displ. norm   :     0.4880792 α      lambda       -0.3264234E-03
   maximum displ.:     0.2583952 α      in ANC's #3, #2, #6, ...

........................................................................
.............................. CYCLE   42 ..............................
........................................................................

 iter      E             dE          RMSdq      gap      omega  full diag
   1   -100.7725902 -0.100773E+03  0.591E-02    1.02       0.0  T
   2   -100.7725924 -0.223403E-05  0.353E-02    1.02       1.0  T
   3   -100.7725513  0.411018E-04  0.205E-02    1.01       1.0  T
   4   -100.7725957 -0.443704E-04  0.382E-03    1.02       3.1  T
   5   -100.7725964 -0.733741E-06  0.223E-03    1.02       5.3  T
   6   -100.7725967 -0.335675E-06  0.106E-03    1.02      11.1  T
   7   -100.7725968 -0.626789E-07  0.553E-04    1.02      21.3  T
   8   -100.7725968 -0.281808E-07  0.120E-04    1.02      98.3  T
     SCC iter.                  ...        0 min,  0.065 sec
     gradient                   ...        0 min,  0.069 sec
 * total energy  :  -102.0334435 Eh     change       -0.1471732E-03 Eh
   gradient norm :     0.0103069 Eh/α   predicted    -0.2020937E-03 (  37.32%)
   displ. norm   :     0.2037882 α      lambda       -0.2701887E-03
   maximum displ.:     0.1191656 α      in ANC's #2, #3, #11, ...
 * RMSD in coord.:     0.9964815 α      energy gain  -0.2323005E-01 Eh

generating ANC from model Hessian ...
Using Lindh-Hessian (1995)
 Shifting diagonal of input Hessian by    9.9416818657055636E-003
 Lowest  eigenvalues of input Hessian
    0.000000    0.000000    0.000000    0.000000    0.000000    0.000000
    0.010000    0.010041    0.010100    0.010222    0.010325    0.010577
    0.010795    0.010968    0.011353    0.011920    0.012037    0.012691
 Highest eigenvalues
    2.113013    2.177424    2.181859    2.192262    2.258564    2.405715


........................................................................
.............................. CYCLE   43 ..............................
........................................................................

 iter      E             dE          RMSdq      gap      omega  full diag
   1   -100.7756495 -0.100776E+03  0.306E-02    1.01       0.0  T
   2   -100.7756491  0.437733E-06  0.190E-02    1.02       1.0  T
   3   -100.7756122  0.369413E-04  0.198E-02    1.00       1.0  T
   4   -100.7756506 -0.384445E-04  0.476E-03    1.02       2.5  T
   5   -100.7756528 -0.216367E-05  0.130E-03    1.02       9.1  T
   6   -100.7756529 -0.136157E-06  0.552E-04    1.01      21.3  T
   7   -100.7756529 -0.132840E-07  0.329E-04    1.01      35.8  T
     SCC iter.                  ...        0 min,  0.058 sec
     gradient                   ...        0 min,  0.069 sec
 * total energy  :  -102.0336300 Eh     change       -0.1865651E-03 Eh
   gradient norm :     0.0087212 Eh/α   predicted     0.0000000E+00 (-100.00%)
   displ. norm   :     0.0794985 α      lambda       -0.2103226E-03
   maximum displ.:     0.0425571 α      in ANC's #3, #1, #11, ...

........................................................................
.............................. CYCLE   44 ..............................
........................................................................

 iter      E             dE          RMSdq      gap      omega  full diag
   1   -100.7765728 -0.100777E+03  0.183E-02    1.01       0.0  T
   2   -100.7765719  0.957159E-06  0.125E-02    1.01       1.0  T
   3   -100.7765665  0.539181E-05  0.114E-02    1.01       1.0  T
   4   -100.7765732 -0.668217E-05  0.492E-03    1.02       2.4  T
   5   -100.7765756 -0.247025E-05  0.955E-04    1.01      12.3  T
   6   -100.7765757 -0.675572E-07  0.504E-04    1.01      23.4  T
   7   -100.7765757 -0.156824E-07  0.204E-04    1.01      57.8  T
     SCC iter.                  ...        0 min,  0.058 sec
     gradient                   ...        0 min,  0.069 sec
 * total energy  :  -102.0337776 Eh     change       -0.1475545E-03 Eh
   gradient norm :     0.0097326 Eh/α   predicted    -0.1058263E-03 ( -28.28%)
   displ. norm   :     0.1964596 α      lambda       -0.2953878E-03
   maximum displ.:     0.1070735 α      in ANC's #3, #1, #13, ...

........................................................................
.............................. CYCLE   45 ..............................
........................................................................

 iter      E             dE          RMSdq      gap      omega  full diag
   1   -100.7774090 -0.100777E+03  0.343E-02    1.01       0.0  T
   2   -100.7774051  0.396152E-05  0.234E-02    1.01       1.0  T
   3   -100.7773824  0.226359E-04  0.220E-02    1.00       1.0  T
   4   -100.7774096 -0.271728E-04  0.882E-03    1.01       1.3  T
   5   -100.7774177 -0.809040E-05  0.160E-03    1.01       7.4  T
   6   -100.7774179 -0.174041E-06  0.887E-04    1.01      13.3  T
   7   -100.7774179 -0.494009E-07  0.347E-04    1.01      34.0  T
     SCC iter.                  ...        0 min,  0.059 sec
     gradient                   ...        0 min,  0.072 sec
 * total energy  :  -102.0339044 Eh     change       -0.1268272E-03 Eh
   gradient norm :     0.0163838 Eh/α   predicted    -0.1534030E-03 (  20.95%)
   displ. norm   :     0.1460369 α      lambda       -0.1827017E-03
   maximum displ.:     0.0841121 α      in ANC's #3, #1, #13, ...

........................................................................
.............................. CYCLE   46 ..............................
........................................................................

 iter      E             dE          RMSdq      gap      omega  full diag
   1   -100.7771592 -0.100777E+03  0.229E-02    1.00       0.0  T
   2   -100.7771592 -0.146193E-07  0.138E-02    1.01       1.0  T
   3   -100.7771484  0.108166E-04  0.108E-02    1.00       1.1  T
   4   -100.7771592 -0.108134E-04  0.242E-03    1.01       4.9  T
   5   -100.7771598 -0.592937E-06  0.522E-04    1.00      22.6  T
   6   -100.7771598 -0.430752E-08  0.264E-04    1.00      44.6  T
     SCC iter.                  ...        0 min,  0.050 sec
     gradient                   ...        0 min,  0.069 sec
 * total energy  :  -102.0340405 Eh     change       -0.1360467E-03 Eh
   gradient norm :     0.0062688 Eh/α   predicted    -0.9330096E-04 ( -31.42%)
   displ. norm   :     0.2533804 α      lambda       -0.2274725E-03
   maximum displ.:     0.1483327 α      in ANC's #3, #1, #13, ...

........................................................................
.............................. CYCLE   47 ..............................
........................................................................

 iter      E             dE          RMSdq      gap      omega  full diag
   1   -100.7762540 -0.100776E+03  0.388E-02    1.00       0.0  T
   2   -100.7762545 -0.472912E-06  0.233E-02    1.00       1.0  T
   3   -100.7762407  0.137223E-04  0.102E-02    0.99       1.2  T
   4   -100.7762546 -0.138677E-04  0.282E-03    1.00       4.2  T
   5   -100.7762554 -0.759303E-06  0.139E-03    1.00       8.5  T
   6   -100.7762555 -0.136403E-06  0.572E-04    1.00      20.6  T
   7   -100.7762555 -0.828940E-08  0.262E-04    1.00      44.9  T
     SCC iter.                  ...        0 min,  0.058 sec
     gradient                   ...        0 min,  0.069 sec
 * total energy  :  -102.0342170 Eh     change       -0.1765906E-03 Eh
   gradient norm :     0.0118397 Eh/α   predicted    -0.1210533E-03 ( -31.45%)
   displ. norm   :     0.3452896 α      lambda       -0.2260616E-03
   maximum displ.:     0.2061438 α      in ANC's #3, #1, #13, ...

........................................................................
.............................. CYCLE   48 ..............................
........................................................................

 iter      E             dE          RMSdq      gap      omega  full diag
   1   -100.7750601 -0.100775E+03  0.505E-02    0.99       0.0  T
   2   -100.7750610 -0.875845E-06  0.301E-02    1.00       1.0  T
   3   -100.7750392  0.217887E-04  0.137E-02    0.98       1.0  T
   4   -100.7750608 -0.216019E-04  0.424E-03    1.00       2.8  T
   5   -100.7750627 -0.183072E-05  0.155E-03    1.00       7.6  T
   6   -100.7750628 -0.141419E-06  0.784E-04    1.00      15.0  T
   7   -100.7750628 -0.220018E-07  0.355E-04    1.00      33.2  T
     SCC iter.                  ...        0 min,  0.058 sec
     gradient                   ...        0 min,  0.069 sec
 * total energy  :  -102.0343946 Eh     change       -0.1775340E-03 Eh
   gradient norm :     0.0101623 Eh/α   predicted    -0.1265099E-03 ( -28.74%)
   displ. norm   :     0.3398981 α      lambda       -0.1868425E-03
   maximum displ.:     0.2112406 α      in ANC's #3, #1, #13, ...

........................................................................
.............................. CYCLE   49 ..............................
........................................................................

 iter      E             dE          RMSdq      gap      omega  full diag
   1   -100.7748236 -0.100775E+03  0.478E-02    0.99       0.0  T
   2   -100.7748243 -0.706759E-06  0.283E-02    1.00       1.0  T
   3   -100.7748088  0.155725E-04  0.125E-02    0.98       1.0  T
   4   -100.7748235 -0.147536E-04  0.439E-03    1.00       2.7  T
   5   -100.7748255 -0.200827E-05  0.110E-03    0.99      10.7  T
   6   -100.7748256 -0.494982E-07  0.630E-04    0.99      18.7  T
   7   -100.7748256 -0.127866E-07  0.315E-04    0.99      37.4  T
     SCC iter.                  ...        0 min,  0.058 sec
     gradient                   ...        0 min,  0.069 sec
 * total energy  :  -102.0345472 Eh     change       -0.1526419E-03 Eh
   gradient norm :     0.0050814 Eh/α   predicted    -0.1042158E-03 ( -31.73%)
   displ. norm   :     0.3140970 α      lambda       -0.1670946E-03
   maximum displ.:     0.2047401 α      in ANC's #3, #1, #13, ...

........................................................................
.............................. CYCLE   50 ..............................
........................................................................

 iter      E             dE          RMSdq      gap      omega  full diag
   1   -100.7758476 -0.100776E+03  0.426E-02    0.99       0.0  T
   2   -100.7758481 -0.465311E-06  0.251E-02    0.99       1.0  T
   3   -100.7758387  0.940285E-05  0.102E-02    0.99       1.2  T
   4   -100.7758475 -0.879173E-05  0.363E-03    1.00       3.3  T
   5   -100.7758488 -0.128639E-05  0.742E-04    0.99      15.9  T
   6   -100.7758488 -0.126011E-07  0.374E-04    0.99      31.5  T
   7   -100.7758488 -0.741309E-09  0.188E-04    0.99      62.6  T
     SCC iter.                  ...        0 min,  0.058 sec
     gradient                   ...        0 min,  0.069 sec
 * total energy  :  -102.0346877 Eh     change       -0.1404980E-03 Eh
   gradient norm :     0.0043799 Eh/α   predicted    -0.9179648E-04 ( -34.66%)
   displ. norm   :     0.3136544 α      lambda       -0.1599252E-03
   maximum displ.:     0.2118360 α      in ANC's #3, #1, #2, ...

........................................................................
.............................. CYCLE   51 ..............................
........................................................................

 iter      E             dE          RMSdq      gap      omega  full diag
   1   -100.7770377 -0.100777E+03  0.402E-02    0.99       0.0  T
   2   -100.7770380 -0.351304E-06  0.237E-02    0.99       1.0  T
   3   -100.7770295  0.853551E-05  0.943E-03    0.99       1.2  T
   4   -100.7770379 -0.840718E-05  0.278E-03    0.99       4.2  T
   5   -100.7770386 -0.686842E-06  0.688E-04    0.99      17.1  T
   6   -100.7770386 -0.190802E-08  0.439E-04    0.99      26.8  T
     SCC iter.                  ...        0 min,  0.050 sec
     gradient                   ...        0 min,  0.069 sec
 * total energy  :  -102.0348270 Eh     change       -0.1392580E-03 Eh
   gradient norm :     0.0063135 Eh/α   predicted    -0.8783332E-04 ( -36.93%)
   displ. norm   :     0.3252920 α      lambda       -0.1674939E-03
   maximum displ.:     0.2255779 α      in ANC's #3, #1, #2, ...

........................................................................
.............................. CYCLE   52 ..............................
........................................................................

 iter      E             dE          RMSdq      gap      omega  full diag
   1   -100.7780477 -0.100778E+03  0.390E-02    0.99       0.0  T
   2   -100.7780483 -0.630212E-06  0.230E-02    0.99       1.0  T
   3   -100.7780418  0.647901E-05  0.800E-03    0.99       1.5  T
   4   -100.7780483 -0.646002E-05  0.279E-03    0.99       4.2  T
   5   -100.7780489 -0.605908E-06  0.886E-04    0.99      13.3  T
   6   -100.7780489 -0.912716E-08  0.600E-04    0.99      19.6  T
     SCC iter.                  ...        0 min,  0.050 sec
     gradient                   ...        0 min,  0.070 sec
 * total energy  :  -102.0349773 Eh     change       -0.1503224E-03 Eh
   gradient norm :     0.0064960 Eh/α   predicted    -0.9261560E-04 ( -38.39%)
   displ. norm   :     0.3537846 α      lambda       -0.1860863E-03
   maximum displ.:     0.2492420 α      in ANC's #3, #1, #2, ...

........................................................................
.............................. CYCLE   53 ..............................
........................................................................

 iter      E             dE          RMSdq      gap      omega  full diag
   1   -100.7785093 -0.100779E+03  0.391E-02    1.00       0.0  T
   2   -100.7785102 -0.857304E-06  0.231E-02    0.99       1.0  T
   3   -100.7785034  0.676108E-05  0.810E-03    1.00       1.5  T
   4   -100.7785106 -0.716764E-05  0.224E-03    1.00       5.3  T
   5   -100.7785110 -0.358370E-06  0.983E-04    0.99      12.0  T
   6   -100.7785110  0.101326E-07  0.744E-04    1.00      15.9  T
     SCC iter.                  ...        0 min,  0.049 sec
     gradient                   ...        0 min,  0.069 sec
 * total energy  :  -102.0351464 Eh     change       -0.1690862E-03 Eh
   gradient norm :     0.0051243 Eh/α   predicted    -0.1046907E-03 ( -38.08%)
   displ. norm   :     0.3772532 α      lambda       -0.1973651E-03
   maximum displ.:     0.2684263 α      in ANC's #3, #1, #2, ...

........................................................................
.............................. CYCLE   54 ..............................
........................................................................

 iter      E             dE          RMSdq      gap      omega  full diag
   1   -100.7785806 -0.100779E+03  0.388E-02    1.00       0.0  T
   2   -100.7785816 -0.951548E-06  0.229E-02    1.00       1.0  T
   3   -100.7785747  0.688224E-05  0.818E-03    1.01       1.4  T
   4   -100.7785821 -0.746604E-05  0.172E-03    1.00       6.9  T
   5   -100.7785824 -0.275333E-06  0.818E-04    1.00      14.4  T
   6   -100.7785824 -0.170584E-07  0.435E-04    1.00      27.1  T
     SCC iter.                  ...        0 min,  0.049 sec
     gradient                   ...        0 min,  0.069 sec
 * total energy  :  -102.0353259 Eh     change       -0.1794805E-03 Eh
   gradient norm :     0.0033827 Eh/α   predicted    -0.1127290E-03 ( -37.19%)
   displ. norm   :     0.3877168 α      lambda       -0.1947662E-03
   maximum displ.:     0.2768275 α      in ANC's #3, #1, #2, ...

........................................................................
.............................. CYCLE   55 ..............................
........................................................................

[...]
         :: total energy            -102.038079045069 Eh    ::
         :: gradient norm              0.003561926492 Eh/a0 ::
         :: HOMO-LUMO gap              0.999231278753 eV    ::
         ::.................................................::
         :: SCC energy              -100.780806270962 Eh    ::
         :: -> isotropic ES            0.102698107212 Eh    ::
         :: -> anisotropic ES          0.004495627298 Eh    ::
         :: -> anisotropic XC          0.044294588404 Eh    ::
         :: -> dispersion             -0.075948692548 Eh    ::
         :: repulsion energy           1.554805826281 Eh    ::
         :: add. restraining          -2.813367841697 Eh    ::
         :: total charge               1.000000000000 e     ::
         :::::::::::::::::::::::::::::::::::::::::::::::::::::

           -------------------------------------------------
          |                Property Printout                |
           -------------------------------------------------

    * Orbital Energies and Occupations

         #    Occupation            Energy/Eh            Energy/eV
      -------------------------------------------------------------
         1        2.0000           -0.8212419             -22.3471
       ...           ...                  ...                  ...
        78        1.9968           -0.5291269             -14.3983
        79        1.9967           -0.5286347             -14.3849
        80        1.9961           -0.5263004             -14.3214
        81        1.9948           -0.5215833             -14.1930
        82        1.9921           -0.5149399             -14.0122
        83        1.9908           -0.5124526             -13.9445
        84        1.9885           -0.5089409             -13.8490
        85        1.9869           -0.5069225             -13.7941
        86        1.9659           -0.4915508             -13.3758
        87        1.9303           -0.4799476             -13.0600
        88        1.9133           -0.4763535             -12.9622
        89        1.7822           -0.4606558             -12.5351
        90        1.7190           -0.4560473             -12.4097 (HOMO)
        91        0.7513           -0.4193263             -11.4104 (LUMO)
        92        0.0062           -0.3358829              -9.1398
        93        0.0020           -0.3176307              -8.6432
        94        0.0019           -0.3173065              -8.6343
        95        0.0016           -0.3149383              -8.5699
        96        0.0005           -0.2954211              -8.0388
        97        0.0000           -0.1924593              -5.2371
        98        0.0000           -0.1881028              -5.1185
        99                         -0.1107195              -3.0128
       100                         -0.0706698              -1.9230
       101                         -0.0688300              -1.8730
       ...                                ...                  ...
       171                          1.4012517              38.1300
      -------------------------------------------------------------
                  HL-Gap            0.0367211 Eh            0.9992 eV
             Fermi-level           -0.4273699 Eh          -11.6293 eV

     #   Z          covCN         q      C6AA      α(0)
     1   7 N        1.774    -0.257    27.505     7.766
     2   6 C        2.827     0.092    25.952     8.348
     3   6 C        3.907     0.008    20.385     6.418
     4   6 C        2.974     0.011    27.765     8.643
     5   6 C        2.920    -0.076    29.885     8.965
     6   6 C        2.862     0.133    25.087     8.210
     7   8 O        1.706    -0.221    17.668     5.675
     8   6 C        3.644     0.025    20.488     6.506
     9   6 C        2.864     0.133    25.092     8.211
    10   8 O        1.706    -0.218    17.627     5.669
    11   6 C        3.646     0.025    20.495     6.506
    12   6 C        2.913    -0.070    29.737     8.942
    13   6 C        2.921    -0.046    29.143     8.853
    14   6 C        3.809    -0.066    21.755     6.639
    15   6 C        3.796    -0.073    21.892     6.662
    16   6 C        3.747    -0.029    21.167     6.562
    17   7 N        2.722    -0.141    24.052     7.284
    18   6 C        3.750     0.002    20.610     6.474
    19   6 C        2.903    -0.052    29.294     8.875
    20   6 C        2.960     0.014    27.702     8.633
    21   6 C        2.917    -0.038    28.935     8.821
    22   6 C        2.907    -0.062    29.537     8.911
    23   6 C        2.863     0.143    24.880     8.176
    24   8 O        1.706    -0.199    17.310     5.617
    25   6 C        3.644     0.020    20.575     6.520
    26   6 C        2.857     0.138    24.986     8.193
    27   8 O        1.706    -0.224    17.715     5.683
    28   6 C        3.646     0.025    20.492     6.505
    29   6 C        2.922    -0.077    29.919     8.970
    30   6 C        3.698    -0.043    21.514     6.634
    31   6 C        3.854    -0.008    20.682     6.468
    32   6 C        3.756    -0.118    22.807     6.809
    33   6 C        3.755    -0.119    22.836     6.814
    34   1 H        0.926     0.057     2.229     2.334
    35   1 H        0.924     0.057     2.239     2.340
    36   1 H        0.925     0.084     1.940     2.178
    37   1 H        0.924     0.053     2.283     2.363
    38   1 H        0.924     0.058     2.219     2.330
    39   1 H        0.925     0.084     1.938     2.177
    40   1 H        0.924     0.054     2.270     2.356
    41   1 H        0.926     0.058     2.228     2.334
    42   1 H        0.926     0.049     2.335     2.389
    43   1 H        0.924     0.054     2.268     2.355
    44   1 H        0.924     0.051     2.311     2.377
    45   1 H        0.925     0.050     2.322     2.383
    46   1 H        0.924     0.049     2.331     2.388
    47   1 H        0.923     0.057     2.229     2.335
    48   1 H        0.922     0.043     2.415     2.430
    49   1 H        0.923     0.065     2.137     2.286
    50   1 H        0.924     0.056     2.241     2.341
    51   1 H        0.930     0.098     1.802     2.099
    52   1 H        0.926     0.051     2.307     2.375
    53   1 H        0.926     0.052     2.296     2.369
    54   1 H        0.926     0.062     2.178     2.308
    55   1 H        0.924     0.062     2.170     2.304
    56   1 H        0.924     0.063     2.167     2.302
    57   1 H        0.925     0.089     1.890     2.150
    58   1 H        0.925     0.085     1.932     2.174
    59   1 H        0.924     0.055     2.258     2.350
    60   1 H        0.924     0.054     2.268     2.355
    61   1 H        0.926     0.056     2.243     2.342
    62   1 H        0.924     0.039     2.465     2.456
    63   1 H        0.925     0.054     2.269     2.356
    64   1 H        0.925     0.053     2.286     2.365
    65   1 H        0.924     0.040     2.447     2.446
    66   1 H        0.925     0.069     2.098     2.265
    67   1 H        0.925     0.035     2.510     2.478
    68   1 H        0.925     0.052     2.289     2.366
    69   1 H        0.925     0.065     2.140     2.287
    70   1 H        0.925     0.039     2.464     2.455
    71   1 H        0.925     0.055     2.260     2.351
    72   1 H        0.860     0.160     1.338     1.812

 Mol. C6AA /au·bohr⁶  :      47449.151369
 Mol. C8AA /au·bohr⁸  :    1081748.603899
 Mol. α(0) /au        :        334.424647


Wiberg/Mayer (AO) data.
largest (>0.10) Wiberg bond orders for each atom

 ---------------------------------------------------------------------------
     #   Z sym  total        # sym  WBO       # sym  WBO       # sym  WBO
 ---------------------------------------------------------------------------
     1   7 N    3.000 --     2 C    1.951    72 H    0.938
     2   6 C    3.911 --     1 N    1.951     3 C    0.989    47 H    0.892
     3   6 C    3.961 --     2 C    0.989     4 C    0.975    14 C    0.949
                            31 C    0.942
     4   6 C    3.928 --    13 C    1.395     5 C    1.374     3 C    0.975
     5   6 C    3.951 --     6 C    1.392     4 C    1.374    34 H    0.957
     6   6 C    3.886 --     5 C    1.392     9 C    1.210     7 O    1.109
     7   8 O    2.250 --     6 C    1.109     8 C    0.976
     8   6 C    3.927 --     7 O    0.976    36 H    0.976    35 H    0.972
                            37 H    0.972
     9   6 C    3.879 --    12 C    1.380     6 C    1.210    10 O    1.113
    10   8 O    2.249 --     9 C    1.113    11 C    0.976
    11   6 C    3.926 --    39 H    0.976    10 O    0.976    40 H    0.972
                            38 H    0.971
    12   6 C    3.951 --    13 C    1.415     9 C    1.380    41 H    0.963
    13   6 C    3.933 --    12 C    1.415     4 C    1.395    42 H    0.961
    14   6 C    3.983 --    15 C    1.009    44 H    0.970    43 H    0.968
                             3 C    0.949
    15   6 C    3.982 --    14 C    1.009    16 C    0.993    46 H    0.972
                            45 H    0.965
    16   6 C    3.959 --    15 C    0.993    17 N    0.976    51 H    0.972
                            48 H    0.968
    17   7 N    3.098 --    30 C    1.016    18 C    0.992    16 C    0.976
    18   6 C    3.971 --    19 C    1.031    17 N    0.992    50 H    0.956
                            49 H    0.933
    19   6 C    3.544 --    20 C    1.443    18 C    1.031    52 H    0.963
    20   6 C    3.975 --    19 C    1.443    21 C    1.221    29 C    1.205
    21   6 C    3.817 --    22 C    1.515    20 C    1.221    53 H    0.963
    22   6 C    3.965 --    21 C    1.515    23 C    1.318    54 H    0.961
    23   6 C    3.779 --    22 C    1.318    26 C    1.170    24 O    1.150
    24   8 O    2.265 --    23 C    1.150    25 C    0.970
    25   6 C    3.921 --    57 H    0.976    55 H    0.971    56 H    0.971
                            24 O    0.970
    26   6 C    3.913 --    29 C    1.475    23 C    1.170    27 O    1.107
    27   8 O    2.260 --    26 C    1.107    28 C    0.976
    28   6 C    3.927 --    58 H    0.976    27 O    0.976    60 H    0.973
                            59 H    0.972
    29   6 C    3.855 --    26 C    1.475    20 C    1.205    61 H    0.961
    30   6 C    3.970 --    17 N    1.016    64 H    0.980    63 H    0.969
                            62 H    0.966
    31   6 C    3.964 --    33 C    1.008    32 C    1.008    65 H    0.954
                             3 C    0.942
    32   6 C    3.971 --    31 C    1.008    67 H    0.980    68 H    0.980
                            66 H    0.970
    33   6 C    3.972 --    31 C    1.008    70 H    0.981    71 H    0.978
                            69 H    0.971
    34   1 H    0.995 --     5 C    0.957
    35   1 H    0.991 --     8 C    0.972
    36   1 H    0.992 --     8 C    0.976
    37   1 H    0.991 --     8 C    0.972
    38   1 H    0.990 --    11 C    0.971
    39   1 H    0.992 --    11 C    0.976
    40   1 H    0.990 --    11 C    0.972
    41   1 H    0.994 --    12 C    0.963
    42   1 H    0.996 --    13 C    0.961
    43   1 H    0.995 --    14 C    0.968
    44   1 H    0.996 --    14 C    0.970
    45   1 H    0.996 --    15 C    0.965
    46   1 H    0.995 --    15 C    0.972
    47   1 H    0.962 --     2 C    0.892
    48   1 H    0.997 --    16 C    0.968
    49   1 H    0.967 --    18 C    0.933
    50   1 H    0.991 --    18 C    0.956
    51   1 H    0.982 --    16 C    0.972
    52   1 H    0.996 --    19 C    0.963
    53   1 H    0.996 --    21 C    0.963
    54   1 H    0.994 --    22 C    0.961
    55   1 H    0.989 --    25 C    0.971
    56   1 H    0.988 --    25 C    0.971
    57   1 H    0.991 --    25 C    0.976
    58   1 H    0.992 --    28 C    0.976
    59   1 H    0.992 --    28 C    0.972
    60   1 H    0.992 --    28 C    0.973
    61   1 H    0.995 --    29 C    0.961
    62   1 H    0.981 --    30 C    0.966
    63   1 H    0.991 --    30 C    0.969
    64   1 H    0.997 --    30 C    0.980
    65   1 H    0.985 --    31 C    0.954
    66   1 H    0.988 --    32 C    0.970
    67   1 H    0.995 --    32 C    0.980
    68   1 H    0.992 --    32 C    0.980
    69   1 H    0.989 --    33 C    0.971
    70   1 H    0.995 --    33 C    0.981
    71   1 H    0.992 --    33 C    0.978
    72   1 H    0.963 --     1 N    0.938
 ---------------------------------------------------------------------------

Topologies differ in total number of bonds
Writing topology from bond orders to xtbtopo.mol

molecular dipole:
                 x           y           z       tot (Debye)
 q only:        1.082      -0.003      -0.117
   full:        1.454      -0.319      -0.109       3.795
molecular quadrupole (traceless):
                xx          xy          yy          xz          yz          zz
 q only:       70.094      12.796     -24.697       0.822      -4.657     -45.397
  q+dip:       65.555      15.759     -24.483       3.573      -6.599     -41.072
   full:       64.565      15.233     -24.977       3.018      -7.720     -39.588

           -------------------------------------------------
          |                Geometry Summary                 |
           -------------------------------------------------

      molecular mass/u    :      455.6105846
   center of mass at/Å    :       -0.0009800       0.0123803      -0.0137257
  moments of inertia/u·Å² :        0.2268527E+04   0.1110389E+05   0.1228713E+05
rotational constants/cm⁻¹ :        0.7431090E-02   0.1518173E-02   0.1371975E-02

 * 65 selected distances

     #   Z          #   Z                                           value/Å
     1   7 N        2   6 C                                       1.2504605
     4   6 C        5   6 C                                       1.3952786
     5   6 C        6   6 C                                       1.3862138
     6   6 C        7   8 O                                       1.3460655
     7   8 O        8   6 C                                       1.4085101
     6   6 C        9   6 C                                       1.4235951
     9   6 C       10   8 O                                       1.3447318
    10   8 O       11   6 C                                       1.4082022
     9   6 C       12   6 C                                       1.3873441
     4   6 C       13   6 C                                       1.3888320
    12   6 C       13   6 C                                       1.3872003
    14   6 C       15   6 C                                       1.5355409 (max)
    17   7 N       18   6 C                                       1.4557154
    19   6 C       20   6 C                                       1.3833843
    20   6 C       21   6 C                                       1.4208378
    21   6 C       22   6 C                                       1.3721108
    22   6 C       23   6 C                                       1.3983637
    23   6 C       24   8 O                                       1.3344959
    24   8 O       25   6 C                                       1.4111573
    23   6 C       26   6 C                                       1.4331281
    26   6 C       27   8 O                                       1.3453898
    27   8 O       28   6 C                                       1.4081247
    20   6 C       29   6 C                                       1.4276570
    26   6 C       29   6 C                                       1.3716783
    17   7 N       30   6 C                                       1.4474992
    31   6 C       32   6 C                                       1.5266548
    31   6 C       33   6 C                                       1.5257648
     5   6 C       34   1 H                                       1.0771021
     8   6 C       35   1 H                                       1.0941635
     8   6 C       36   1 H                                       1.0882702
     8   6 C       37   1 H                                       1.0942435
    11   6 C       38   1 H                                       1.0937784
    11   6 C       39   1 H                                       1.0881267
    11   6 C       40   1 H                                       1.0940098
    12   6 C       41   1 H                                       1.0777995
    13   6 C       42   1 H                                       1.0785035
    14   6 C       43   1 H                                       1.0910160
    14   6 C       44   1 H                                       1.0909146
    15   6 C       45   1 H                                       1.0889584
    15   6 C       46   1 H                                       1.0938545
     2   6 C       47   1 H                                       1.0996990
    16   6 C       48   1 H                                       1.1055450
    18   6 C       49   1 H                                       1.1003200
    18   6 C       50   1 H                                       1.0920937
    16   6 C       51   1 H                                       0.7438883 (min)
    19   6 C       52   1 H                                       1.0804351
    21   6 C       53   1 H                                       1.0779485
    22   6 C       54   1 H                                       1.0786382
    25   6 C       55   1 H                                       1.0945828
    25   6 C       56   1 H                                       1.0946956
    25   6 C       57   1 H                                       1.0886374
    28   6 C       58   1 H                                       1.0862614
    28   6 C       59   1 H                                       1.0928277
    28   6 C       60   1 H                                       1.0933950
    29   6 C       61   1 H                                       1.0785249
    30   6 C       62   1 H                                       1.0962791
    30   6 C       63   1 H                                       1.0897735
    30   6 C       64   1 H                                       1.0881599
    31   6 C       65   1 H                                       1.0964253
    32   6 C       66   1 H                                       1.0859479
    32   6 C       67   1 H                                       1.0875910
    32   6 C       68   1 H                                       1.0868213
    33   6 C       69   1 H                                       1.0858271
    33   6 C       70   1 H                                       1.0863038
    33   6 C       71   1 H                                       1.0870261

 * 4 distinct bonds (by element types)

   Z      Z             #   av. dist./Å        max./Å        min./Å
   1 H    6 C          38     1.0802207     1.1055450     0.7438883
   6 C    6 C          16     1.4227240     1.5355409     1.3716783
   6 C    7 N           3     1.3845584     1.4557154     1.2504605
   6 C    8 O           8     1.3758347     1.4111573     1.3344959


optimized geometry written to: xtbopt.xyz


           -------------------------------------------------
          | TOTAL ENERGY             -102.038079045069 Eh   |
          | GRADIENT NORM               0.003561926492 Eh/α |
          | HOMO-LUMO GAP               0.999231278753 eV   |
           -------------------------------------------------

------------------------------------------------------------------------
 * finished run on 2024/04/06 at 11:16:44.328     
------------------------------------------------------------------------
 total:
 * wall-time:     0 d,  0 h,  0 min, 11.477 sec
 *  cpu-time:     0 d,  0 h,  0 min, 11.457 sec
 * ratio c/w:     0.998 speedup
 SCF:
 * wall-time:     0 d,  0 h,  0 min,  0.191 sec
 *  cpu-time:     0 d,  0 h,  0 min,  0.190 sec
 * ratio c/w:     0.999 speedup
 ANC optimizer:
 * wall-time:     0 d,  0 h,  0 min, 11.246 sec
 *  cpu-time:     0 d,  0 h,  0 min, 11.242 sec
 * ratio c/w:     1.000 speedup

