72
 energy: -103.312429498552 gnorm: 0.081335551173 xtb: 6.6.1 (8d0f1dd)
N           -1.48549758308088        2.78684732077820        2.24639670968289
C           -1.56098953692346        2.14890734363424        1.18311811337467
C           -2.72617250848240        2.04593123507806        0.29408376110345
C           -3.31421924603619        0.64576227724327        0.36099487477429
C           -4.29835684375119        0.24849630445132       -0.55325966080132
C           -4.83814499742139       -1.02191146758945       -0.52385967652287
O           -5.79082978486875       -1.48120923550111       -1.37140331272498
C           -6.37125361451046       -0.59157897861912       -2.29208931817105
C           -4.38582498621751       -1.95345261827026        0.44089028991236
O           -4.97470879385101       -3.17754956651836        0.38778784056642
C           -4.64864986798431       -4.12006599041719        1.37832034613999
C           -3.42172608977974       -1.55908771230360        1.34843145367263
C           -2.89206476863709       -0.26920696116191        1.30464913650139
C           -2.22735168711760        2.24507332992804       -1.20751870353254
C           -1.27374500433575        1.17208706982585       -1.68737558286898
C           -0.00986622181698        1.13095042065418       -0.91886004431641
N            0.62268008057111       -0.04770463343287       -0.56833571726136
C            1.99448236892573       -0.03633775822393       -0.16469516741661
C            2.92507445693935       -0.54341055628973       -1.28688748441647
C            4.35432540226267       -0.43255328846295       -0.84327839286712
C            5.06217811503915        0.73502732922055       -1.04480914230452
C            6.37442452588091        0.84761202825754       -0.59875215600794
C            6.98820369765062       -0.20341731021585        0.06165145040037
O            8.26258899153237       -0.20331011360784        0.53522532067503
C            9.05669170238416        0.93625899936759        0.32318831256951
C            6.26025839200336       -1.39659657175274        0.28338522465962
O            6.94042458918285       -2.37665575320642        0.93739211104992
C            6.30498428849386       -3.60997189829018        1.15531323733290
C            4.95374622894763       -1.48885454664590       -0.16665757926004
C           -0.06212315939252       -1.31132836526806       -0.62224697960900
C           -3.85501586006582        3.06260227801456        0.60136780036927
C           -4.47686127570449        2.82211547687300        1.96550357004717
C           -3.36790680044530        4.50484475643244        0.51490664828016
H           -4.64772103013597        0.95289140932005       -1.28493327117107
H           -6.83158174463668        0.26723457294336       -1.79408506975455
H           -7.14170213406679       -1.16133048255322       -2.80550958139768
H           -5.63898092799436       -0.24114323495257       -3.02544473584184
H           -4.87508531892138       -3.74823383397209        2.37833158112657
H           -5.27071524768830       -4.98811449755223        1.16609052352899
H           -3.59355369865459       -4.41070151601632        1.32864920967742
H           -3.06739252026627       -2.24288883772675        2.09969756590600
H           -2.15321798399722        0.00024540042135        2.04719018944812
H           -3.06483938650400        2.34593754796298       -1.90523012539989
H           -1.64588550027760        3.21066595119817       -1.27178454538103
H           -1.83822167568006        0.20287572694329       -1.60359603347220
H           -1.03671284195397        1.35404468448594       -2.74163685763895
H           -0.69190228449057        1.61647345631989        0.70562851977445
H            0.63684617372076        1.99161653456889       -0.96636724728766
H            2.10906675291514       -0.64859446119523        0.71905211276326
H            2.28808082974992        0.98599239221702        0.09985100848676
H            2.75707963733507        0.06593870711861       -2.17220317950576
H            2.66953794501052       -1.57776486704614       -1.51517623989109
H            4.60883648558866        1.56576114032245       -1.55989762012348
H            6.91226597950983        1.76392077808896       -0.78403365826731
H            8.63770996711319        1.81582555492837        0.81918531871708
H            9.18835201193724        1.14690956361428       -0.74417069340041
H           10.02451972937349        0.70150897437781        0.76412269806406
H            7.04360830198516       -4.23348291677690        1.65754584031249
H            5.42705080454370       -3.50274678378081        1.79937976088399
H            6.01126771199523       -4.08807028922393        0.21419252118545
H            4.39120062320771       -2.39546984582451       -0.00520970869465
H           -0.22943608862474       -1.62946723346006       -1.65452217905288
H           -1.03213556194981       -1.24217300927802       -0.11829667981885
H            0.54894902127464       -2.05669442509290       -0.11931407260521
H           -4.65610979423368        2.93476985277163       -0.14792039588629
H           -3.72682922314278        2.96058993558478        2.73298662162071
H           -4.86436126482525        1.81484644569218        2.04075450134170
H           -5.29735782514622        3.51473399074570        2.13067542097547
H           -2.57100239204988        4.66500956079672        1.23685508318618
H           -3.01646605389786        4.75283955909228       -0.47615020358459
H           -4.18711244209946        5.17729884118124        0.75173957864490
H           -0.60544225300939        2.79068259333032        2.75458313088326
72
 energy: -103.315570435066 gnorm: 0.029242782647 xtb: 6.6.1 (8d0f1dd)
N           -1.50020143910345        2.80940722810238        2.24483838362061
C           -1.56462040302356        2.15131840229591        1.17809066630799
C           -2.74127597877681        2.05043644549932        0.27245090791620
C           -3.31760640329664        0.64446024250170        0.35851371632301
C           -4.30109912213671        0.24673984284901       -0.55106578314626
C           -4.83981476114135       -1.02359173842081       -0.52292736164281
O           -5.79693940984785       -1.48476565432938       -1.37126006992758
C           -6.37059164391368       -0.59238289781107       -2.29293590295996
C           -4.38921582398035       -1.95289212023790        0.44276217334325
O           -4.97654016100914       -3.18024101323601        0.38860462293773
C           -4.64779081267095       -4.12167407367119        1.37825966037071
C           -3.42480191927930       -1.55707150741894        1.34868431678724
C           -2.89627954056066       -0.26884574844946        1.30540466256845
C           -2.20739048857948        2.26976582562496       -1.19073824881845
C           -1.27814144587178        1.16316252646150       -1.68575919587934
C           -0.00449561573872        1.12628523642761       -0.92233645434589
N            0.62516930848950       -0.05312598316501       -0.56532523644032
C            1.99689680271371       -0.04002124694065       -0.16616803562818
C            2.93043830188084       -0.54456083128541       -1.28761035205062
C            4.35769099061049       -0.43515841535014       -0.84812042243599
C            5.06829939529540        0.73268497193894       -1.04704797466021
C            6.37723191748419        0.84650019883520       -0.59863029650522
C            6.98954647497151       -0.20397826445330        0.06237895758675
O            8.26658369031546       -0.20421123846441        0.53598953594089
C            9.05787466372785        0.93664777104536        0.32374010926446
C            6.26319953484535       -1.39685942220629        0.28299343136131
O            6.94344019665418       -2.37776761635210        0.93871427171486
C            6.30499605759935       -3.60951370179119        1.15581046870954
C            4.95991067007254       -1.49159139116226       -0.16899547962151
C           -0.05943908194639       -1.31465817300394       -0.62181881519401
C           -3.86421086176353        3.07087993085384        0.59315152854657
C           -4.47772770699612        2.81791188132599        1.96622131296382
C           -3.37231377097841        4.51313872298215        0.51518422614144
H           -4.64935312958947        0.95104772961649       -1.28637537258560
H           -6.82871857315278        0.26732638480880       -1.79303244886881
H           -7.14293403622876       -1.16125670030180       -2.80734205211716
H           -5.63660397313202       -0.23958020056685       -3.02524733302691
H           -4.87436157968803       -3.74770656598608        2.38073947503060
H           -5.26826582392352       -4.99150157162764        1.16816264236336
H           -3.59209414030175       -4.41023091794008        1.32813036798947
H           -3.06792018411437       -2.24134553779471        2.10098745255025
H           -2.15539427054180        0.00424525556073        2.04211022792377
H           -3.05939443836063        2.35360886440049       -1.86791819263182
H           -1.66004358287387        3.22709422029434       -1.24122985685745
H           -1.80983017932098        0.20133084500803       -1.61833445941246
H           -1.06581631445303        1.34910789774080       -2.74837226376237
H           -0.69753627762830        1.60895759937399        0.72067368162826
H            0.64713352742233        1.98331989817580       -0.99381574068749
H            2.12317450759281       -0.66159702559863        0.72209037095540
H            2.28557709794660        0.98223431370983        0.09578312328666
H            2.75703536424997        0.06547585125193       -2.17390416242024
H            2.67538989893612       -1.57902683055278       -1.51917126221378
H            4.61249336460789        1.56448816512755       -1.56148381078250
H            6.91343962550481        1.76430139920056       -0.78055510135690
H            8.63730792712217        1.81771689012923        0.81891337294867
H            9.18723178447984        1.14700979066554       -0.74364792754767
H           10.02654151385186        0.70440050365634        0.76380604994993
H            7.04168609066507       -4.23480805673228        1.65830902320235
H            5.42505385246853       -3.50198302603696        1.79874882851314
H            6.01081134671503       -4.08586190216738        0.21407712367309
H            4.39513352361994       -2.39672002930425       -0.00707012868640
H           -0.22851096916630       -1.63766486319540       -1.65465436985300
H           -1.02787584855777       -1.24710077879745       -0.11730958466528
H            0.54602097498285       -2.06388285489002       -0.11687581558208
H           -4.65373422456064        2.93665213288513       -0.15915354028608
H           -3.72613799859501        2.96064599117965        2.73499372738074
H           -4.86637160373475        1.80614120727577        2.03995204254177
H           -5.29673884975916        3.51341770272785        2.13531224009989
H           -2.57315569083125        4.66834192268555        1.23435411054152
H           -3.01469094189702        4.75965507762480       -0.47868645109942
H           -4.19053389686944        5.18738816604174        0.75589877659140
H           -0.61943449652622        2.78998064691282        2.75369028550701
72
 energy: -103.316224169774 gnorm: 0.020807986107 xtb: 6.6.1 (8d0f1dd)
N           -1.48673977788582        2.79935395499840        2.25133012069587
C           -1.54850412507468        2.14045090139284        1.17770865943959
C           -2.73556459188574        2.04869222853277        0.26116191750177
C           -3.30974465413652        0.64222246712018        0.35848308011124
C           -4.29476838832992        0.24823596200871       -0.54878887075051
C           -4.83428927175911       -1.02157087709742       -0.52356007796919
O           -5.79564263632537       -1.48330739603257       -1.37167015385495
C           -6.37015040150132       -0.59141796527988       -2.29243891983706
C           -4.38495164979687       -1.95144686860585        0.44043953784116
O           -4.97496377753201       -3.17901277632338        0.38570706050160
C           -4.64924675572431       -4.12029073865652        1.37549661671458
C           -3.42022894364607       -1.55792193171834        1.34662905175435
C           -2.88979895896535       -0.27212289386397        1.30630943694957
C           -2.21661627797830        2.26756444569539       -1.19952847987252
C           -1.28249139848082        1.15499209925622       -1.68629883936719
C           -0.01126451355580        1.13166039829945       -0.91349449592025
N            0.61995704560307       -0.04594845060550       -0.55805934767959
C            1.99068639257732       -0.02998571415119       -0.16265596458413
C            2.92471441537817       -0.54031837353421       -1.28195808353307
C            4.34951324884357       -0.43168828104112       -0.84305192443413
C            5.06315224145912        0.73512304296819       -1.04313962771067
C            6.37232428302127        0.84787299416008       -0.59903878944167
C            6.98380831827080       -0.20283074155645        0.06147649558025
O            8.26327506761093       -0.20511360251808        0.53378605681899
C            9.05585193483300        0.93453133078799        0.32296229111865
C            6.25752143312982       -1.39457546826735        0.28381322744785
O            6.94084002870801       -2.37667635824377        0.93708122584855
C            6.30524670807340       -3.60945243826920        1.15508715633928
C            4.95412023669711       -1.48896923526396       -0.16401136904948
C           -0.06164953176011       -1.30638976748791       -0.62303723805337
C           -3.85859267834635        3.06575140959446        0.59501495636974
C           -4.47542578350499        2.81872549160786        1.96965919462660
C           -3.36694047603062        4.50653384942076        0.51638271544300
H           -4.64380961719664        0.95450084014119       -1.28391103487671
H           -6.83031550458783        0.26778983867388       -1.79264628749340
H           -7.14236186808313       -1.16261112355575       -2.80554468993285
H           -5.63818574827974       -0.23751748090537       -3.02670147921481
H           -4.87666606503747       -3.74557053696506        2.37918575442525
H           -5.27185871815883       -4.98841678564680        1.16540894165986
H           -3.59417704320363       -4.41134967732609        1.32789172446007
H           -3.06553959878468       -2.24385548144878        2.09999298562213
H           -2.15153405154173        0.00175566275703        2.04427678145179
H           -3.06154212130973        2.33526957792670       -1.89190458586164
H           -1.66299559741281        3.20031664808085       -1.26958983077823
H           -1.81602845460080        0.20944407359182       -1.61673655599179
H           -1.05437817199086        1.34892559831961       -2.74715875910685
H           -0.68352765960714        1.61467915659911        0.71622860670407
H            0.63256428294489        1.99580394555473       -0.96931275948393
H            2.11590402230679       -0.65384385799146        0.72977026602212
H            2.28133438756517        0.99025104459983        0.09932156035733
H            2.75262344077647        0.06767621528816       -2.17144650288648
H            2.66679864138946       -1.57500911369111       -1.51267483018729
H            4.60566654062388        1.56659337644453       -1.55870645489137
H            6.90973273386266        1.76422266810749       -0.78455864153896
H            8.63673109958585        1.81663837950078        0.81912044727369
H            9.18668946323209        1.14617326781599       -0.74392240704548
H           10.02353439181439        0.70039063930254        0.76384423834133
H            7.04414842010663       -4.23273411084836        1.65664224495176
H            5.42594997753274       -3.50402704054121        1.79999478217939
H            6.01052191298759       -4.08714630814310        0.21419071503831
H            4.38764316737417       -2.39328855447174       -0.00305105725460
H           -0.22976000121215       -1.62704797428809       -1.65797289534996
H           -1.03060869502968       -1.24324318637967       -0.11926645611034
H            0.54470455192356       -2.05708062488896       -0.12044345848454
H           -4.64908209124890        2.92990422600913       -0.15067875882166
H           -3.72515800358761        2.96474184802951        2.73960038186431
H           -4.86698014097450        1.80713296426594        2.04440242104779
H           -5.29412929985296        3.51783695127382        2.13125646589339
H           -2.56812775459576        4.66355662707513        1.23464038696202
H           -3.00979451959752        4.75001864821344       -0.48039222584035
H           -4.18777885309819        5.17806827897724        0.75434314135436
H           -0.59428322661528        2.77843046677252        2.74231757787967
72
 energy: -103.316558174863 gnorm: 0.011687021462 xtb: 6.6.1 (8d0f1dd)
N           -1.50163573381641        2.80385505797255        2.25746300709974
C           -1.55648067305967        2.14430483719651        1.18674137065391
C           -2.73915166411354        2.05035066973074        0.26851233245986
C           -3.31631435631962        0.64494907262793        0.36008104617905
C           -4.29952906696753        0.24849832211998       -0.54951885739751
C           -4.83812760402706       -1.02196886895634       -0.52271580467557
O           -5.79764407364817       -1.48462764857008       -1.37188668537026
C           -6.37110997682984       -0.59278803623341       -2.29288582064307
C           -4.38842895274201       -1.95113587862197        0.44175612527328
O           -4.97613669709388       -3.17977516837026        0.38825609000936
C           -4.64737519770676       -4.12064466584198        1.37736707375507
C           -3.42449114993891       -1.55590665609115        1.34813133011952
C           -2.89545585589563       -0.26950833844624        1.30762374405289
C           -2.22042262285203        2.26715969206933       -1.19557185654424
C           -1.28014124859716        1.15975050724836       -1.68358271052432
C           -0.00553209024299        1.12813870393535       -0.91774737961994
N            0.62409076587777       -0.05119399155417       -0.56550160488528
C            1.99525129991591       -0.03694572200873       -0.17145637829544
C            2.93142906281074       -0.54613954861735       -1.28949592305072
C            4.35535215211568       -0.43496941608981       -0.84757649742742
C            5.06831037927355        0.73267735346401       -1.04555343531087
C            6.37707798487896        0.84665702330512       -0.59926078335929
C            6.98856568965527       -0.20389622143693        0.06165987639215
O            8.26721949147584       -0.20412829733216        0.53584770222990
C            9.05837931065888        0.93620250843304        0.32388223957686
C            6.26258249786056       -1.39634895996200        0.28227192901508
O            6.94391851872057       -2.37823470984768        0.93783978764717
C            6.30608279072804       -3.60984046434452        1.15555176720132
C            4.95998092243774       -1.49176618986998       -0.16822609509806
C           -0.05979043658178       -1.31081159687556       -0.62266117576175
C           -3.86230486411903        3.06867127426660        0.59509199752185
C           -4.47945476323185        2.82021147047237        1.96689790397642
C           -3.37198827543545        4.50967022030654        0.51725600555386
H           -4.64981734154798        0.95282591410064       -1.28559575625418
H           -6.83148210505921        0.26711614141143       -1.79468326543269
H           -7.14289670912639       -1.16261163992098       -2.80725633917255
H           -5.63784187096755       -0.24106168427609       -3.02622109549904
H           -4.87411294549953       -3.74812253001548        2.38136342196963
H           -5.26859388391903       -4.98977996674131        1.16778071861912
H           -3.59189617006195       -4.40988149887414        1.32890372764392
H           -3.06928192106461       -2.24126390884181        2.10136852601194
H           -2.15706266715982        0.00433664440656        2.04597159868203
H           -3.05864798703441        2.34877417806982       -1.89740948091324
H           -1.65260771742951        3.19863880025025       -1.25849684661540
H           -1.82713306193711        0.21673356273697       -1.60662307593793
H           -1.04395858821665        1.35688893413412       -2.74216403840344
H           -0.69361440208542        1.62125199879880        0.72028792304365
H            0.64193312917036        1.98869895312884       -0.97538326258361
H            2.11637837802433       -0.65907570252178        0.72004557425412
H            2.28933590987449        0.98134167062494        0.09441605014709
H            2.76079577379679        0.06312082479570       -2.17801521224310
H            2.67431415685813       -1.58084995337935       -1.52092162018393
H            4.61135040523859        1.56351752534309       -1.56223125294856
H            6.91416778023433        1.76365176812268       -0.78292839586101
H            8.63813745735420        1.81776026009840        0.81946843047974
H            9.18943259300937        1.14746125867248       -0.74320833428918
H           10.02634376798009        0.70388058589315        0.76509060798160
H            7.04276910865989       -4.23422087621458        1.65899828629216
H            5.42619322208889       -3.50191907190389        1.79894144198512
H            6.01195446859135       -4.08790812877275        0.21458249756156
H            4.39436936082541       -2.39703273858815       -0.00934695986868
H           -0.22978965360369       -1.63586379074079       -1.65538107250864
H           -1.02841519570071       -1.24406128711661       -0.11755098121654
H            0.54837587033770       -2.05941985732360       -0.11848879631918
H           -4.65670651583896        2.93720818378195       -0.14882095988980
H           -3.72688516271770        2.96129780545004        2.73390819555500
H           -4.86832015353237        1.80927728632948        2.03813316248331
H           -5.29959538957174        3.51604187728349        2.13190153988543
H           -2.57421003455295        4.66689511538525        1.23660333687475
H           -3.01690670863398        4.75696472733513       -0.47813830959203
H           -4.19206793091483        5.18145747773090        0.75408793880217
H           -0.61137183865355        2.78751459082490        2.75202812808916
72
 energy: -103.316728755996 gnorm: 0.009925687735 xtb: 6.6.1 (8d0f1dd)
N           -1.49390623779290        2.80700010051882        2.24750646680548
C           -1.55127075247526        2.14659004922548        1.18065532876198
C           -2.73623465190360        2.04839787104779        0.27197490255482
C           -3.31439731244113        0.64356131574964        0.35948916742535
C           -4.29766390464546        0.24713658025507       -0.55073619521656
C           -4.83681176767742       -1.02309400327842       -0.52318464508132
O           -5.79588988091251       -1.48449686404767       -1.37249591872586
C           -6.36984386083187       -0.59138879388614       -2.29177466940171
C           -4.38713011218987       -1.95275323479276        0.44086504084826
O           -4.97595030223369       -3.18051000703244        0.38771106050827
C           -4.64859061550030       -4.12138414492565        1.37700480823239
C           -3.42218728403597       -1.55812339039931        1.34686150097580
C           -2.89234991730112       -0.27173228103716        1.30548543348115
C           -2.21871613289041        2.26583031817765       -1.19307834147808
C           -1.28015010064712        1.15927346600977       -1.68877877582341
C           -0.00489395740603        1.12755654601287       -0.92568088559144
N            0.62277421998808       -0.05040068320871       -0.56493848288821
C            1.99263556494720       -0.03448856188947       -0.16525809401615
C            2.92764299451018       -0.54251550920175       -1.28402943297874
C            4.35249895797136       -0.43243562339735       -0.84434297277750
C            5.06553110272519        0.73462061683543       -1.04369048435383
C            6.37486332669415        0.84795041290647       -0.59803857930085
C            6.98641786827958       -0.20315776642466        0.06229993419425
O            8.26493614326828       -0.20398230979369        0.53567570107622
C            9.05636949623150        0.93577581839491        0.32265555024417
C            6.25995335968327       -1.39522179016218        0.28364069651825
O            6.94136345719604       -2.37732426505874        0.93844925097405
C            6.30417255261677       -3.60934330389411        1.15515842291019
C            4.95660056946834       -1.48956405679296       -0.16559448260691
C           -0.06061461424569       -1.31087820271516       -0.62155881065928
C           -3.85892620232416        3.06742263748364        0.59532819523519
C           -4.47531042265403        2.81907438108124        1.96710429358077
C           -3.36809368780212        4.50862123318471        0.51557603686154
H           -4.64777034858369        0.95118569362563       -1.28646729410093
H           -6.82913966357017        0.26806123782717       -1.79213160012157
H           -7.14223499832409       -1.15977511132254       -2.80645853975557
H           -5.63693570340682       -0.23904721970212       -3.02490651004963
H           -4.87538945498496       -3.74821436539090        2.38017261958343
H           -5.27042367302420       -4.99008157340353        1.16718868232296
H           -3.59335843956514       -4.41147221750753        1.32869072264831
H           -3.06632543926190       -2.24365352247168        2.09922932137752
H           -2.15196479897212        0.00106044935916        2.04263402712910
H           -3.06501036115432        2.34869782834216       -1.88374640445997
H           -1.65995893138286        3.21132493200186       -1.25245973073265
H           -1.81989983034480        0.20665942002585       -1.61204689487985
H           -1.05282738190513        1.35317995836414       -2.74865750842359
H           -0.69519503855653        1.60911847606457        0.71659241568863
H            0.64290641355926        1.98716984201674       -0.98693008764663
H            2.11440496857194       -0.65475692509927        0.72563795533821
H            2.28472035414279        0.98498960751864        0.10019871594093
H            2.75464537870402        0.06765517729462       -2.17101476667773
H            2.67015075839895       -1.57695701458585       -1.51475306601316
H            4.60864463596861        1.56590730463489       -1.55927403335630
H            6.91198227023252        1.76494170761326       -0.78137213491471
H            8.63691421348904        1.81714691624940        0.81868085343778
H            9.18609786448664        1.14677912438856       -0.74468916188072
H           10.02479656053566        0.70285193602515        0.76267681283234
H            7.04166440961810       -4.23414152787327        1.65702242242186
H            5.42491267557837       -3.50259898809738        1.79931845248906
H            6.00957780084687       -4.08610781289393        0.21368357258840
H            4.39032592890849       -2.39403617144922       -0.00441684729703
H           -0.22780469590464       -1.63490418207501       -1.65462001360763
H           -1.03089730250177       -1.24452077101714       -0.11926322820192
H            0.54628104346956       -2.05986907880795       -0.11634871805022
H           -4.65230989274379        2.93570612321521       -0.15183243640470
H           -3.72367984210564        2.96062962274584        2.73423288295546
H           -4.86303183535858        1.80859342081723        2.04061589487595
H           -5.29570937059423        3.51347207505540        2.13312144444351
H           -2.56984141021691        4.66576449382988        1.23452339913733
H           -3.01301351707711        4.75599585824645       -0.47905916390437
H           -4.18628404648019        5.18262704287845        0.75278840895237
H           -0.60648620575623        2.78465146216792        2.74678488740966
72
 energy: -103.316824173287 gnorm: 0.005357018895 xtb: 6.6.1 (8d0f1dd)
N           -1.49763046299165        2.80271220700134        2.25129134121251
C           -1.55161697486236        2.14501523551399        1.18123934763336
C           -2.73678000732559        2.04975770309025        0.26836969265936
C           -3.31367259313707        0.64457385676794        0.35884607389900
C           -4.29748011583829        0.24874434438127       -0.55019833629835
C           -4.83672170603322       -1.02142721667882       -0.52276302929981
O           -5.79603909299408       -1.48375936290209       -1.37207929029387
C           -6.37072061643037       -0.59260952681378       -2.29273248699689
C           -4.38710041632290       -1.95082427602785        0.44134916625951
O           -4.97551637439651       -3.17891617130454        0.38743315987688
C           -4.64819238409875       -4.11979780214414        1.37648990579284
C           -3.42296865808514       -1.55593086205666        1.34815315071497
C           -2.89320369769873       -0.26969575199614        1.30667087079552
C           -2.21582842199968        2.26715786264574       -1.19440849760738
C           -1.27884356471853        1.15739504580259       -1.68572835297720
C           -0.00633832480282        1.12882768354702       -0.91754380869913
N            0.62290822998266       -0.04934687936659       -0.56052756272941
C            1.99424354000339       -0.03458383619000       -0.16588497008893
C            2.92813771093454       -0.54320620435800       -1.28603277264820