25
 energy: 0.000000000000 xtb: 6.6.1 (8d0f1dd)
C            3.23720132972391        1.16630909158653        0.08434468864950
N            2.29877796055224        0.07527476373246        0.03981602671198
C            2.58028186251803       -1.21425391179017        0.03006175752192
N            1.43813944744728       -1.93419254010258        0.00098261751768
C            0.39035684826767       -1.05887462812143       -0.00790371763344
C            0.93510047688824        0.21347817468824        0.01709077332874
C            0.09450143016486        1.40504290868848       -0.00410946993748
O            0.49712746915594        2.54126690785742       -0.00342325656480
N           -1.25076628431515        1.06271869620815       -0.03085477937476
C           -2.21907191394203        2.15522079838987       -0.05001256521996
C           -1.81739470187490       -0.20012724136556       -0.04692818139228
O           -2.99983858926755       -0.37846413507442       -0.07008877579474
N           -0.92618577614240       -1.30210203518959       -0.03682761236648
C           -1.46982251276835       -2.64643077634382       -0.06029819901142
H            3.71247229913541        1.21471443890471        1.06488839270555
H            4.00791460421487        1.03430799217987       -0.67357688121503
H            2.69909982127087        2.09770098766290       -0.09130154035862
H            3.56654087521359       -1.63682977417947        0.04233139674524
H           -1.67107945562430        3.09322822573871       -0.02552706696334
H           -2.82428927394145        2.09428605349656       -0.95318074103337
H           -2.87644002486466        2.07745706351925        0.81450059976605
H           -1.17061985538665       -3.19584861009707        0.83242224714061
H           -1.14560246782873       -3.17511580834413       -0.95688266944647
H           -2.55549768731684       -2.55659960601237       -0.07459039105944
H            1.38130842369251       -2.94313824728853       -0.01389874052104
25
 energy: -6.348430988650 xtb: 6.6.1 (8d0f1dd)
C            3.26165030399400        1.17716942747271        0.07034699036360
N            2.31851736022992        0.10502512734575        0.02067746051689
C            2.60240813640386       -1.24441857952063        0.04509962674942
N            1.41698695360765       -1.93904476462963        0.01736601070389
C            0.39858863950996       -1.05776125395615        0.00481881987998
C            0.92545537130127        0.22875434554830        0.02241435315838
C            0.11341086620516        1.38535186218828        0.00312091228119
O            0.48513264870325        2.56266045216515        0.00753768114540
N           -1.27265069451163        1.04665828384153       -0.02938679217853
C           -2.22595622231450        2.14489273491360       -0.05140383594709
C           -1.82175031185294       -0.19875015431343       -0.04962585054120
O           -3.02071860717930       -0.38691971256846       -0.08058250550828
N           -0.94092022085893       -1.29989303338146       -0.03424632462139
C           -1.47621444285786       -2.64172733846452       -0.06333526579050
H            3.76803251431011        1.19106488185344        1.03761045156054
H            4.03521036521255        1.11017046360498       -0.70539242228233
H            2.70125131743967        2.10286644121556       -0.04532694590462
H            3.57526623713872       -1.66465597938615        0.06427828581400
H           -1.66643503314286        3.07858184043983       -0.02687790427837
H           -2.83243885694590        2.09037153235388       -0.95577483107447
H           -2.88516305654600        2.07593728260689        0.81368546584794
H           -1.17685137064960       -3.19690448706283        0.82884152333033
H           -1.14916762325236       -3.17367380277034       -0.96065724337153
H           -2.56211697979417       -2.55252640234747       -0.08184051378441
H            1.36003456593704       -2.94344322989746       -0.00030450273196
25
 energy: -5.729339045027 xtb: 6.6.1 (8d0f1dd)
C            3.28260316235348        1.18220934990755        0.05457460062415
N            2.33298950652841        0.10815490606812        0.00189118887175
C            2.60291288905049       -1.24951354070200        0.05958380530496
N            1.41191500436458       -1.93830558989671        0.03411732643200
C            0.39724596036996       -1.05349425670416        0.01490089967720
C            0.93099540081483        0.23282731610291        0.02488762715638
C            0.11067680152709        1.38301112869495        0.00987462756435
O            0.47457989023430        2.56228200955005        0.02193989989606
N           -1.27844929291582        1.04180614833981       -0.02738151853976
C           -2.23274737260162        2.13954891573246       -0.05314296953402
C           -1.82882402880591       -0.20206695988132       -0.05246929551302
O           -3.02793199105099       -0.39043423404159       -0.09080593482500
N           -0.94422775637398       -1.29913797157017       -0.03212720017058
C           -1.48047410801199       -2.64159202622106       -0.06637024144088
H            3.81909413190419        1.16071492944848        1.00487580602495
H            4.05290243210817        1.18420016719201       -0.73736205292303
H            2.70753324266244        2.10557040723691        0.00281619815805
H            3.57204107023052       -1.68016272761820        0.08656295656565
H           -1.67003451324390        3.07170029009246       -0.02964996151444
H           -2.83942978867175        2.08417415350232       -0.95788572620434
H           -2.89432435630670        2.07486997293873        0.81094433477146
H           -1.18480363045453       -3.19953665763587        0.82546409532743
H           -1.15323300414950       -3.17238593796315       -0.96491869042678
H           -2.56700869821564       -2.55210089026483       -0.08945930994508
H            1.34668983064079       -2.94296914121378        0.01662875645991
25
 energy: -4.509822970152 xtb: 6.6.1 (8d0f1dd)
C            3.30232564489349        1.18840274642113        0.03789000449890
N            2.34488791154224        0.11308528033800       -0.01705374577218
C            2.60246879437148       -1.25158553402269        0.07767313751764
N            1.40690729556962       -1.93609313067762        0.05248954978507
C            0.39554887601743       -1.04861254662023        0.02424708689808
C            0.93531676570433        0.23779825239357        0.02053974925602
C            0.10696176393023        1.38044390940354        0.01491011171936
O            0.46170433457640        2.56185587872713        0.03554394352330
N           -1.28486412684233        1.03666861914708       -0.02624185345630
C           -2.23942627778730        2.13427455917263       -0.05513036382478
C           -1.83549554467452       -0.20572490234533       -0.05702741901870
O           -3.03433449669330       -0.39521356678736       -0.10449774908908
N           -0.94748905414782       -1.29839694684189       -0.02968073241677
C           -1.48461214190218       -2.64128928477820       -0.06993338680590
H            3.86826855790806        1.12943565340488        0.96987939104250
H            4.06567328070043        1.25918520227366       -0.76955383197269
H            2.71453791055308        2.10695198896119        0.05068212325978
H            3.56792511446313       -1.69230668850284        0.10941948846742
H           -1.67352068499106        3.06491546271722       -0.03228618867435
H           -2.84639269167368        2.07817884852303       -0.95996018705120
H           -2.90243900123576        2.07302234827854        0.80834815307224
H           -1.19284181975081       -3.20149625862539        0.82198835786718
H           -1.15663717000086       -3.17059313485799       -0.97000230573502
H           -2.57164134111407       -2.55054960657400       -0.09757235033643
H            1.33478714383898       -2.94100447302004        0.03370701297202
25
 energy: -2.730457324629 xtb: 6.6.1 (8d0f1dd)
C            3.31898491596512        1.19363944140049        0.02275653327304
N            2.34632086988679        0.11739597078312       -0.00638764691283
C            2.59849742432003       -1.25169305054046        0.10135375490431
N            1.40043942287947       -1.93415285859535        0.07199547045226
C            0.39147720306428       -1.04493592176700        0.03241556630169
C            0.93483007200583        0.24109849102732        0.01430591579632
C            0.10161103124831        1.37857268885652        0.01998778036967
O            0.44926027040312        2.56165309340388        0.04829149996780
N           -1.29237390623111        1.03224730016988       -0.02524642163888
C           -2.24682972770172        2.12962060845427       -0.05572426120369
C           -1.84237988853017       -0.20904259006694       -0.06252289897890
O           -3.04067179145266       -0.40049217810433       -0.11989203474006
N           -0.95204169915989       -1.29820156051652       -0.02798493963242
C           -1.48918244658450       -2.64129913144800       -0.07443840287006
H            3.91729043190228        1.09963165069494        0.93240736797046
H            4.07148260834998        1.33015442799519       -0.80244848374564
H            2.72409542291850        2.10692867311099        0.09697598914355
H            3.56119297186749       -1.70159347226495        0.13472386725990
H           -1.67745182102410        3.05844433429380       -0.03459888391243
H           -2.85424763808731        2.07257781410155       -0.96018998268594
H           -2.91035177622607        2.07123450454540        0.80760212071402
H           -1.20133909022264       -3.20368074312789        0.81777841305734
H           -1.15888635658748       -3.16813858502055       -0.97611671228278
H           -2.57652312784508       -2.54933903399889       -0.10687106241105
H            1.32304735091464       -2.93925256784729        0.05230593648538
25
 energy: -0.349565243555 xtb: 6.6.1 (8d0f1dd)
C            3.33877201705677        1.19978908703890        0.00739457898456
N            2.34942989982416        0.12501512677977        0.01250982289225
C            2.59332456196440       -1.24695478369729        0.11647216591162
N            1.39418342377585       -1.92956053723630        0.09069633347746
C            0.38636745841731       -1.03960092567339        0.03563009726107
C            0.93364097125148        0.24554741553515        0.00719729221154
C            0.09422011349911        1.37814429406005        0.02730033767184
O            0.43565020805118        2.56242242019577        0.06302488589844
N           -1.30110960115520        1.02869399255176       -0.02317401405379
C           -2.25544640582649        2.12554908585575       -0.05642390324379
C           -1.84941143587742       -0.21213051057363       -0.06785183850315
O           -3.04692227765605       -0.40627440897140       -0.13409147546033
N           -0.95703789984298       -1.29763109424835       -0.02672037564786
C           -1.49316253412234       -2.64121278777017       -0.07884284516902
H            3.96635572896144        1.06855335109876        0.89339375484503
H            4.07527268274365        1.40010333643015       -0.83840117541847
H            2.74496153261526        2.10727326123759        0.14541025863677
H            3.55282953201057       -1.70760115130587        0.15920111720678
H           -1.68293066325940        3.05289144192949       -0.03674030463043
H           -2.86163044126583        2.06651392422944       -0.96149318986524
H           -2.92011259711398        2.06908733756455        0.80611013802462
H           -1.20913046194640       -3.20485012337057        0.81433314543617
H           -1.15942847527197       -3.16574142099270       -0.98173707164363
H           -2.58077581338303       -2.54851542943575       -0.11625559579957
H            1.31325281524568       -2.93550210555178        0.07139726552805
25
 energy: 2.474129496526 xtb: 6.6.1 (8d0f1dd)
C            3.36101953615010        1.20535649893362       -0.01010402691429
N            2.35173731590910        0.13573110099958        0.02945580668755
C            2.59098654131077       -1.23835996365427        0.09842956518133
N            1.39134072166232       -1.92348497519149        0.10832029613555
C            0.38346954931506       -1.03568990291394        0.03867714521529
C            0.93050241353441        0.25069114372669        0.00016954722252
C            0.08588210903764        1.38012751189670        0.03234632434186
O            0.42207510577124        2.56453110824163        0.07634425259761
N           -1.31020261493362        1.02628889114447       -0.01995139666019
C           -2.26499397268059        2.12168008492742       -0.05646591268337
C           -1.85535782650214       -0.21531419300164       -0.07284228171771
O           -3.05187421064750       -0.41285444195685       -0.14789390072742
N           -0.96068961175831       -1.29744452493775       -0.02416932558698
C           -1.49660721882158       -2.64125421656718       -0.08128959791529
H            4.01350556998292        1.03748734422048        0.85266932994821
H            4.08090672867333        1.46684868002734       -0.87507562987460
H            2.77595859681958        2.10827598948935        0.18729966054561
H            3.54486704338257       -1.70977997784086        0.18425013372228
H           -1.69051984729385        3.04816611176452       -0.03704315745626
H           -2.86902877437305        2.06072518827555       -0.96278540242535
H           -2.93090473504072        2.06533371024750        0.80485350101417
H           -1.21737990209145       -3.20594630652696        0.81273305754399
H           -1.15479955042322       -3.16760927750164       -0.97934974783595
H           -2.58433080736518       -2.54804435730029       -0.12628227659649
H            1.30655345738046       -2.93042169652431        0.09317280733463
25
 energy: 5.745808994344 xtb: 6.6.1 (8d0f1dd)
C            3.37669393424931        1.20674925594589       -0.01595190595063
N            2.35515338767352        0.14028894802519        0.05310222879132
C            2.59294687155054       -1.23905276113489        0.08186313591813
N            1.39049069725658       -1.92129161438425        0.12112738183366
C            0.38340732473245       -1.03615095199835        0.03837926170806
C            0.93072748322784        0.25209576647942        0.00811294510694
C            0.08139868952961        1.38165988632751        0.03383323390625
O            0.41087051065547        2.56576493661248        0.08812012192286
N           -1.31401844714375        1.02434998686949       -0.02273964270625
C           -2.27142709350872        2.11838870110157       -0.05514084982019
C           -1.85834491790898       -0.21870657503889       -0.07888237212109
O           -3.05379269331839       -0.41902998460683       -0.16401807368969
N           -0.96117197423740       -1.29885493193535       -0.02205704777231
C           -1.49996083676377       -2.64223003939663       -0.08344775861594
H            4.06464086424605        1.00900341299168        0.81139721302490
H            4.08838890322128        1.53442461372682       -0.90030083958837
H            2.80910960791741        2.10672889469479        0.22238891503392
H            3.53923819005224       -1.71531736372502        0.22024624005813
H           -1.69545767698860        3.04405652921642       -0.03879027752601
H           -2.87728871370302        2.05677105800774       -0.95998669883155
H           -2.93584603462538        2.06287351533523        0.80758152221564
H           -1.22657752024715       -3.20804642303243        0.81159777889459
H           -1.15149199847773       -3.17159035717220       -0.97579064050926
H           -2.58767046839884       -2.54822365486509       -0.13627958774460
H            1.30070570151681       -2.92818937452469        0.10584781292517
25
 energy: 7.447570807152 xtb: 6.6.1 (8d0f1dd)
C            3.37728939237837        1.20266663411064       -0.01253817610193
N            2.35253144366747        0.14232776645166        0.07627746657276
C            2.59366115010390       -1.23877037314952        0.08422875845216
N            1.39137645797329       -1.91965112052322        0.12391841752787
C            0.38258647001064       -1.03905089575814        0.03290926345610
C            0.92636566126033        0.25103072179982        0.00906524804817
C            0.07665626803309        1.38161470554043        0.03395961147306
O            0.40225864201693        2.56596581104794        0.09374887465574
N           -1.31850888463760        1.02356524053765       -0.02660573835629
C           -2.27792641646433        2.11577006847682       -0.05606762367150
C           -1.85958822815255       -0.22085015426987       -0.08406043836031
O           -3.05423027057978       -0.42042734730625       -0.17553168573941
N           -0.96216914884673       -1.30137002516505       -0.02854401707721
C           -1.50411980325012       -2.64296626044467       -0.08850406719390
H            4.10312816501825        0.97514611674705        0.77313496055162
H            4.06735271563897        1.57828501024630       -0.92135519726828
H            2.83295990404431        2.10113746243484        0.26185349454687
H            3.53404793355749       -1.71749882887531        0.25542288541502
H           -1.70217802738255        3.04133471217698       -0.03999972402874
H           -2.88700204303821        2.05181537011068       -0.95750412110162
H           -2.94058879897119        2.06035416788365        0.80960590875851
H           -1.23504916570279       -3.20931198234208        0.80797216374636
H           -1.15544378029707       -3.17300228618370       -0.97926670584455
H           -2.59125363239755       -2.54633103983535       -0.14644896692425
H            1.29755177908149       -2.92628078524622        0.12500978281208
25
 energy: 12.855442724044 xtb: 6.6.1 (8d0f1dd)
C            3.38148557848666        1.20036036278838       -0.00995257563422
N            2.35062103503038        0.14498481321829        0.10479309887795
C            2.59118294633441       -1.23795211608223        0.11313664868581
N            1.38927502455575       -1.92209258230859        0.13933841559720
C            0.38096138272873       -1.04393398491003        0.03014394934951
C            0.92188686302784        0.24734764989941        0.01188729589355
C            0.07216398665027        1.37800851789766        0.02938357024272
O            0.39981634816493        2.56112258262990        0.08522989277466
N           -1.32382322743969        1.02271851683512       -0.03178431318524
C           -2.28155446242171        2.11515557086557       -0.06014907706416
C           -1.86319579691078       -0.22225007718370       -0.08171952737516
O           -3.05767727582880       -0.42444845184196       -0.16559930856625
N           -0.96413980484459       -1.30383760100035       -0.03504042036920
C           -1.50841068633270       -2.64417612483635       -0.09426558552495
H            4.13901849107513        0.94363329510635        0.73157171349050
H            4.10788828908614        1.62513118817545       -0.94265370655996
H            2.85588802983571        2.09521672106746        0.30327276666875
H            3.52936566994614       -1.71816326583885        0.28796037939904
H           -1.70808730992471        3.04069164400167       -0.04150701260219
H           -2.89315260643743        2.04630380977371       -0.95952809415366
H           -2.94305882941168        2.06057367895516        0.80526990937670
H           -1.24296376428341       -3.21089364523517        0.80349926544362
H           -1.16011965809696       -3.17572737574428       -0.98344413039536
H           -2.59495033052815       -2.54549341303304       -0.15692642702484
H            1.29477460236056       -2.92734130378394        0.14642884701184
25
 energy: 20.601209038663 xtb: 6.6.1 (8d0f1dd)
C            3.37653401870084        1.19335562598628        0.00352719293464
N            2.34667916695828        0.14604117758858        0.13061548622780
C            2.58794162494729       -1.23719046610577        0.14087062426603
N            1.38725731997397       -1.92523584828878        0.15680547437985
C            0.37909617694360       -1.05036144048968        0.02861989044555
C            0.91665846834466        0.24208879302682        0.01674545503049
C            0.06637662101719        1.37301364381949        0.02556247534748
O            0.39456900251508        2.55515208070640        0.07015311713830
N           -1.33046134559041        1.02189145164231       -0.03652314399033
C           -2.28697419464309        2.11634516949652       -0.06455164217099
C           -1.86775897976762       -0.22393375166833       -0.07761601739376
O           -3.06187208669306       -0.43067380079073       -0.14998973354302
N           -0.96615109551795       -1.30679150102166       -0.04072198319785
C           -1.51293840446471       -2.64573648279381       -0.09966779524334
H            4.17026681451637        0.90903457966341        0.68904855169113
H            4.15589951947675        1.68565332506063       -0.97500473208677
H            2.87643331797706        2.08691223307646        0.35379432653793
H            3.52473428328323       -1.71892081599846        0.31475487671880
H           -1.71357419444271        3.04094012858067       -0.04184048494059
H           -2.89179079075578        2.04771439886389       -0.96758476924700
H           -2.94837653999595        2.06106522024694        0.80046608493416
H           -1.25029283886709       -3.21197001580984        0.79971101888773
H           -1.16562573450362       -3.17902394438670       -0.98718527265480
H           -2.59878018220759       -2.54428272748656       -0.16643919568376
H            1.29468384700588       -2.92882287638497        0.16661962957751
25
 energy: 32.045280932634 xtb: 6.6.1 (8d0f1dd)
C            3.35318331792415        1.17260220495416        0.02995462911554
N            2.34003867566190        0.14191244523791        0.13519149734253
C            2.58265132695250       -1.23565096587773        0.16717280343778
N            1.38490322796321       -1.92868345374395        0.17264981001198
C            0.37629609082134       -1.05724204477634        0.02882062130688
C            0.91054739743922        0.23532119865609        0.02207594926751
C            0.06062014293341        1.36964436905313        0.02470068118782
O            0.38944732670357        2.54869565662108        0.05547488054288
N           -1.33682387995419        1.02186145676606       -0.04065560236706
C           -2.29302006599073        2.11841158583653       -0.06918199567952
C           -1.87217812861426       -0.22580452829422       -0.07300204539028
O           -3.06537120093488       -0.43686974268283       -0.13481353360209
N           -0.96796924420564       -1.31044625131300       -0.04456652784721
C           -1.51516028892601       -2.64880142078858       -0.10116748453362
H            4.19012443871021        0.86725201164664        0.64522520899786
H            4.24120166946092        1.76699661793776       -1.03158638505947
H            2.88416364243757        2.08006257757798        0.37460832817414
H            3.51940995180402       -1.71619478891501        0.33774750452860
H           -1.71967943043149        3.04232843370832       -0.04475216179373
H           -2.89491836803306        2.05159721779065       -0.97354645181026
H           -2.95580766194676        2.06391650003591        0.79449970834101
H           -1.25637539355810       -3.21446747444719        0.79853420971351
H           -1.17070130705288       -3.18262161842393       -0.98899803725754
H           -2.59986721695754       -2.54501875754802       -0.17246279154916
H            1.30120855700501       -2.93013312396483        0.16411933973817
25
 energy: 44.811333490990 xtb: 6.6.1 (8d0f1dd)
C            3.30704322464895        1.13531471877043        0.08158318074351
N            2.32693260480738        0.12731355293300        0.13231415208698
C            2.57291996921801       -1.23514207884002        0.19413957903470
N            1.37967005595756       -1.93779485659045        0.18861466706388
C            0.37243129972650       -1.06558071973499        0.03526132119391
C            0.90511822590430        0.22535118929903        0.03080272739479
C            0.05509944042651        1.36773149330436        0.02660981601771
O            0.38526939775033        2.54041624050854        0.04074889404714
N           -1.34162480140219        1.02313452788780       -0.04510793112254
C           -2.29881473372796        2.12139347482039       -0.07426455634817
C           -1.87599394212245       -0.22706439600131       -0.06793675796897
O           -3.06753203299543       -0.44233620208663       -0.11977454043264
N           -0.96971392709527       -1.31328892285489       -0.04317536052410
C           -1.51628657356094       -2.65140578438531       -0.09844224707997
H            4.20208855185578        0.81422452754979        0.58925965831043
H            4.37346302560435        1.88009010066058       -1.11280310554257
H            2.88988441025587        2.07155214759483        0.40074529012737
H            3.51571631609274       -1.70249179551123        0.35497451620319
H           -1.72476371440809        3.04450429933032       -0.05071800151534
H           -2.89976480586652        2.05704583629462       -0.97940555556781
H           -2.96208788981317        2.06691407011676        0.78892481959672
H           -1.25997390147354       -3.21815796957102        0.79911839407311
H           -1.17708730490031       -3.18426075431800       -0.98920913018873
H           -2.60040912833708       -2.54898463259908       -0.16346181067566
H            1.29684304031656       -2.93810206251860        0.14651668143349
25
 energy: 51.494434225520 xtb: 6.6.1 (8d0f1dd)
C            3.27241615636144        1.11062682380322        0.13108337930746
N            2.31881061716240        0.11429371306406        0.12634761435310
C            2.56962966280285       -1.23982677112004        0.19161640692321
N            1.37620246880439       -1.94741283840406        0.20380413672618
C            0.37147116263442       -1.07325154708900        0.04744448310624
C            0.90172803181325        0.21724126466604        0.04405881743811
C            0.05119888622438        1.36569906547693        0.02959762623685
O            0.38296887001752        2.53394870594599        0.02262147650184
N           -1.34662710904618        1.02548226165365       -0.04996329009426
C           -2.30713401174845        2.12380767825222       -0.07980612132720
C           -1.87737637020918       -0.22687836856928       -0.06522268549520
O           -3.06795092687755       -0.44761584342198       -0.10443246895808
N           -0.96972937408451       -1.31471814486910       -0.03747496137985
C           -1.52124418765233       -2.65077376054162       -0.09819630059332
H            4.20684288883267        0.79138476869692        0.55617204576441
H            4.48791675817270        1.97139362888034       -1.17840435315485
H            2.89885328935383        2.06518311952529        0.44199351628140
H            3.51780214528538       -1.69328656288691        0.35584961214331
H           -1.73350232011313        3.04748452479708       -0.05572505789662
H           -2.90596111177128        2.06096969889296       -0.98643252428926
H           -2.97234573935799        2.06587686985889        0.78173536770841
H           -1.26475885088327       -3.21863128272288        0.79764634145846
H           -1.18644385350269       -3.18367796553567       -0.99113160601398
H           -2.60555885945270       -2.54448224616818       -0.15669993356049
H            1.28751998643552       -2.94559935006996        0.13256826019885
25
 energy: 55.774106798852 xtb: 6.6.1 (8d0f1dd)
C            3.25352931363570        1.08538709386364        0.16414184033812
N            2.31646348110654        0.10015592004147        0.10644581918853
C            2.56942793133942       -1.25210709758289        0.17205356829698
N            1.37153045786092       -1.95890522197979        0.21686406527177
C            0.37135532279729       -1.08150052920276        0.05763563644871
C            0.90040232485082        0.20898175969074        0.05329946097894
C            0.05004790566079        1.36193523688706        0.03494157315488
O            0.38197416529690        2.52707499585143        0.00254606344581
N           -1.35014260960068        1.02713326175019       -0.05033213604878
C           -2.30952632891081        2.12811641523523       -0.08252249002660
C           -1.87775785673200       -0.22631479906322       -0.06018668750112
O           -3.06797950220236       -0.45311448746540       -0.08625639396800
N           -0.96983644932866       -1.31716936410318       -0.03039037596195
C           -1.52756128052325       -2.65150509681167       -0.09926392332481
H            4.22126973832769        0.76623499094315        0.51440942184923
H            4.57021078247431        2.07540682333239       -1.23767268147020
H            2.91277269537521        2.05313709062441        0.47227626650158
H            3.51342071656371       -1.69312811507331        0.37865433597318
H           -1.73065039453903        3.04834253401165       -0.05581333236004
H           -2.90590620798823        2.06845916105326       -0.99143638060838
H           -2.97829190704531        2.07028791865311        0.77633548066178
H           -1.27275362672059       -3.22317137623260        0.79371940022026
H           -1.19662371631774       -3.18388657466078       -0.99439518660880
H           -2.61212955718217       -2.54273425042414       -0.15232247754930
H            1.27581983549081       -2.95429140064281        0.12287325723108
25