25
 energy: -43.834701841602 gnorm: 0.085694275627 xtb: 6.6.1 (8d0f1dd)
C            3.23462371376653        1.19787414638209        0.06801690729881
N            2.30041538238828        0.10436974152924        0.02797485337775
C            2.59112687642232       -1.23203460908904        0.03617300873130
N            1.42703208266695       -1.94425957110158        0.00200880276487
C            0.38979128117803       -1.06793378897095       -0.01099821035593
C            0.92182202418671        0.21450551315006        0.00906972422461
C            0.09717117202577        1.39459331363947       -0.00315104982287
O            0.49870535440177        2.55032327395404        0.00478795497901
N           -1.25586128364681        1.05331615166418       -0.02909940308145
C           -2.21826142817252        2.14872641281886       -0.04493757310947
C           -1.82337210759468       -0.20448992951525       -0.04730974126662
O           -3.00772706437943       -0.38089275794424       -0.07032220759783
N           -0.93315036462505       -1.30615257260069       -0.03811028421530
C           -1.47719071481214       -2.64927342039823       -0.06329770307733
H            3.64704604139168        1.30100861788345        1.05105624835088
H            4.06190046206195        0.98877504059197       -0.61221571022858
H            2.80270132055117        2.19559338976564       -0.14156151703770
H            3.56769601992949       -1.65509042018947        0.04719032973764
H           -1.66397390495784        3.08485739914487       -0.02016455692814
H           -2.82332076285748        2.09429342293191       -0.94488472870197
H           -2.87470201589807        2.07292924601363        0.82165112192183
H           -1.17727843328147       -3.20269623133167        0.82750526283174
H           -1.15395610694295       -3.17932589973358       -0.96119847121793
H           -2.56407123414233       -2.55758204336618       -0.07743059155178
H            1.36675409586349       -2.94908936366529       -0.01317154375164
25
 energy: -43.837517741107 gnorm: 0.034751730229 xtb: 6.6.1 (8d0f1dd)
C            3.25011099343655        1.19151589799743        0.08023720059583
N            2.30895662690756        0.11500765305609        0.02713075687531
C            2.60488543124346       -1.23253606877850        0.03437171557427
N            1.42367211714461       -1.93588695779496        0.00189311227864
C            0.39642903836450       -1.05675530975492       -0.01190368899660
C            0.92390747205135        0.22606333202791        0.00724384506704
C            0.10126485296218        1.39107486826827       -0.00457914918553
O            0.48999242541205        2.56128708394285        0.00271060026048
N           -1.26521883241171        1.04686609413291       -0.02959898489952
C           -2.22205468126339        2.14384329181446       -0.04453387240038
C           -1.82685854611413       -0.20308967329964       -0.04778580437791
O           -3.02298213858138       -0.38607187696697       -0.07060937865183
N           -0.93731620837327       -1.30035925720139       -0.03867797078410
C           -1.47582408824513       -2.64266590963063       -0.06328417302316
H            3.66710846681387        1.29350409544287        1.08143424528367
H            4.06389526654389        1.00009162132088       -0.62264225123209
H            2.76186388856930        2.14286937253176       -0.16299530188688
H            3.57890668581950       -1.66081804574986        0.04441441886971
H           -1.65412236402636        3.07176893006474       -0.01904571286395
H           -2.82820143509395        2.09486390368851       -0.94754417803360
H           -2.87770687005901        2.07459631771653        0.82324912864011
H           -1.17297865468249       -3.19734323374307        0.82709570316794
H           -1.14946950604234       -3.17420442058595       -0.95995056584311
H           -2.56174599295903       -2.55186091330536       -0.07705884889981
H            1.35740645810672       -2.93941573363068       -0.01198992326065
25
 energy: -43.838419115693 gnorm: 0.013258673787 xtb: 6.6.1 (8d0f1dd)
C            3.24661908060413        1.20011305336092        0.07276146597753
N            2.30395179562757        0.12278763930258        0.01842835433537
C            2.60434772299263       -1.23074295006064        0.03486465680168
N            1.42095480509435       -1.93770697420741        0.00274509123471
C            0.39702224296668       -1.06033921791681       -0.01138542528927
C            0.91805937283051        0.22597652977806        0.00585274374775
C            0.10684363430675        1.38502258863491       -0.00294168732771
O            0.49354856462791        2.55911100978328        0.00395327063264
N           -1.26753383543154        1.04487433372765       -0.02818558039316
C           -2.21967287501774        2.14565752260293       -0.04391292282636
C           -1.82208209887307       -0.20242305667612       -0.04672412575208
O           -3.02186258320979       -0.38598893196477       -0.07041263310987
N           -0.94127994874811       -1.30485524976622       -0.03781495384994
C           -1.47965997762481       -2.64720274201652       -0.06343796879420
H            3.66145779070115        1.29173633517747        1.07752355151817
H            4.06369949961238        0.99545179425085       -0.62001955776921
H            2.79215059977142        2.16599988451175       -0.15535344590569
H            3.57651161342438       -1.65654501506111        0.04801268679177
H           -1.65931445023218        3.07892448371256       -0.01923612152231
H           -2.82534739361595        2.09469661973997       -0.94762302811743
H           -2.87625114293465        2.07465551787257        0.82231498953885
H           -1.17885827283259       -3.20564865429465        0.82627698885999
H           -1.15514078050544       -3.18141510530936       -0.95994075796685
H           -2.56520072180139       -2.55740447729737       -0.07731654977319
H            1.36095776379077       -2.94238987632127       -0.01084811876730
25
 energy: -43.838475135833 gnorm: 0.008332732885 xtb: 6.6.1 (8d0f1dd)
C            3.23775970899303        1.19928355789525        0.07031430981930
N            2.30136287296461        0.11723546314796        0.02221297821407
C            2.60237782354505       -1.23687722084206        0.03816647698686
N            1.41922531191564       -1.94249409116278        0.00354844510461
C            0.39815864767918       -1.06416874268719       -0.00916712872426
C            0.91637690419462        0.22279331825059        0.01033302405421
C            0.11169949319821        1.38307815535101       -0.00287232567161
O            0.49582456966942        2.55690448540573        0.00422107511487
N           -1.26712327547027        1.04702130923188       -0.02954915193047
C           -2.21849507091282        2.14719824596500       -0.04398092096996
C           -1.81648880186388       -0.19936790453578       -0.04801807132477
O           -3.01558510779725       -0.38406959122258       -0.07208015434344
N           -0.94014217600401       -1.30380888743956       -0.03793659482067
C           -1.47597079351463       -2.64427838775193       -0.06344579858452
H            3.65410861485790        1.29983340778007        1.07060693836845
H            4.05826013940465        0.99477047448583       -0.61793168997015
H            2.77680860823888        2.16553392853125       -0.15229359376010
H            3.57319156395161       -1.66268451639541        0.04480393909070
H           -1.65815849261957        3.08028194209193       -0.01996705767270
H           -2.82576670636082        2.09602289888293       -0.94645698148699
H           -2.87466749677905        2.07464935185930        0.82250008507597
H           -1.17217115939240       -3.19813708137515        0.82819796212985
H           -1.14798649947857       -3.17540003829259       -0.96062842041423
H           -2.56132546605863       -2.55342178107145       -0.07759778713352
H            1.36264719316243       -2.94755323453899       -0.01539863487759
25
 energy: -43.838574038195 gnorm: 0.004449141775 xtb: 6.6.1 (8d0f1dd)
C            3.24460071786470        1.19635886375811        0.07226286198787
N            2.30305172061702        0.11855072637423        0.02211173057413
C            2.60264817953780       -1.23419683344862        0.03743931395256
N            1.41981734721526       -1.93880049799390        0.00294093646482
C            0.39809526595332       -1.06208971676670       -0.01115940015083
C            0.91663697904819        0.22575020365651        0.00863908274043
C            0.10980870933679        1.38529978274868       -0.00461982471944
O            0.48905346056720        2.55980690276869        0.00271133004797
N           -1.27014661243660        1.04699611356077       -0.02975616314427
C           -2.22202827959995        2.14549336035028       -0.04405948987577
C           -1.81784125039136       -0.19990933612706       -0.04729536300030
O           -3.01642902801489       -0.38662860565631       -0.06950206646105
N           -0.94035353905404       -1.30313141684674       -0.03871086086353
C           -1.47739225852476       -2.64389981096058       -0.06360521359515
H            3.66254290755474        1.29442463598315        1.07187913782015
H            4.06499017180862        0.99194734567844       -0.61677578813852
H            2.78530726759664        2.16368102688869       -0.15217140936260
H            3.57406347548559       -1.65902493106520        0.04484164021872
H           -1.65946256806088        3.07693064366563       -0.01973989657135
H           -2.82849231238082        2.09429682380864       -0.94698251966528
H           -2.87846924998009        2.07339013697744        0.82243280489680
H           -1.17493795845659       -3.19980241604091        0.82704184751189
H           -1.15272195593844       -3.17632941543394       -0.96103891740501
H           -2.56300903045169       -2.55313941765090       -0.07658618178375
H            1.36458824622760       -2.94362910666514       -0.01271666920460
25
 energy: -43.838567706063 gnorm: 0.003984207782 xtb: 6.6.1 (8d0f1dd)
C            3.24351163630969        1.19807365851724        0.07259817696404
N            2.30354070435274        0.11887291722232        0.02057104729456
C            2.60290215845939       -1.23318271032387        0.03659725279557
N            1.41993001301453       -1.93791384872714        0.00244352186197
C            0.39711523805758       -1.06275599851674       -0.01182343429598
C            0.91663613472873        0.22523648554512        0.00757484303376
C            0.11136001051411        1.38476175634192       -0.00260922581264
O            0.49093533499057        2.55877799679205        0.00567257505741
N           -1.26971212954384        1.04624510649842       -0.02854454043904
C           -2.21837201841074        2.14687166902774       -0.04385483233207
C           -1.81945114608441       -0.20049220909515       -0.04726404930117
O           -3.01855387696038       -0.38609900133126       -0.07112832636815
N           -0.94181443823319       -1.30458546578788       -0.03843407229879
C           -1.47880984656023       -2.64668861513995       -0.06340561102244
H            3.65937767177527        1.29557748088745        1.07399363530760
H            4.06245178879348        0.99826068525369       -0.61974074673178
H            2.78227703201719        2.16385211023254       -0.15583567378102
H            3.57539153834320       -1.65700224604022        0.04654299251437
H           -1.65426102616040        3.07748689438665       -0.01883935883868
H           -2.82343780077826        2.09699063742119       -0.94769037352878
H           -2.87514946032508        2.07658837997238        0.82240614000187
H           -1.17850942480760       -3.20437234601692        0.82686091274408
H           -1.15337392997701       -3.18095423719422       -0.95945636882668
H           -2.56476431973020       -2.55844494885690       -0.07820678723793
H            1.36470056173825       -2.94275908950521       -0.01084677448621
25
 energy: -43.838600095506 gnorm: 0.001788362406 xtb: 6.6.1 (8d0f1dd)
C            3.24359567140149        1.19725090864807        0.07311371292871
N            2.30379943451962        0.11804360516487        0.02109594458109
C            2.60255150685096       -1.23450733225170        0.03677806047490
N            1.41936016935999       -1.93856165041083        0.00212253106262
C            0.39746667778303       -1.06255589930250       -0.01117454657174
C            0.91691203898139        0.22537235551181        0.00789416428293
C            0.11250255230070        1.38511480397761       -0.00363718588904
O            0.49237181037210        2.55906264406716        0.00326503438192
N           -1.26955620442187        1.04694375514470       -0.02911303477353
C           -2.22025836982945        2.14601090125405       -0.04410883109614
C           -1.81884326178591       -0.19961218733892       -0.04699696592807
O           -3.01796817320983       -0.38553816840645       -0.07076411854609
N           -0.94122329742762       -1.30345344134502       -0.03794084006378
C           -1.47742831714918       -2.64497921078348       -0.06320916450425
H            3.65917382109473        1.29458633023878        1.07449902928112
H            4.06234504418351        0.99535944943944       -0.61869218359326
H            2.78404650040118        2.16395853871823       -0.15419871639381
H            3.57470315474965       -1.65920161599002        0.04581595568017
H           -1.65988781304766        3.07886439191341       -0.02000562575682
H           -2.82687577898933        2.09427165919584       -0.94686389889106
H           -2.87627735632387        2.07405057304420        0.82260472517164
H           -1.17514880188317       -3.20152555640549        0.82714392022932
H           -1.15158280078722       -3.17762610920089       -0.96015102987593
H           -2.56323007431558       -2.55540367036006       -0.07702031275448
H            1.36337227269570       -2.94358001295957       -0.01287570116256
25
 energy: -43.838583944269 gnorm: 0.002810479563 xtb: 6.6.1 (8d0f1dd)
C            3.24331409136357        1.19744526938128        0.07126878341718
N            2.30337557013176        0.11813764879549        0.02219203440968
C            2.60249017651741       -1.23432340079817        0.03813129933651
N            1.42015688199076       -1.93894629578039        0.00415095270302
C            0.39795978528626       -1.06328174715629       -0.01017619564418
C            0.91620091958227        0.22533651226051        0.00948910512089
C            0.11143570988573        1.38466738133279       -0.00300957848958
O            0.48863084961920        2.55933232367874        0.00460365072297
N           -1.27083735710611        1.04573462528731       -0.02935177139871
C           -2.22035997567556        2.14558596982658       -0.04387410224568
C           -1.81852617740879       -0.20080516556470       -0.04803444141980
O           -3.01717296755503       -0.38799566618607       -0.07097613365636
N           -0.94049729275665       -1.30399464587715       -0.03852036831204
C           -1.47769154449887       -2.64450878286917       -0.06413774872871
H            3.66142325946512        1.29678740511362        1.07058267911778
H            4.06290429063359        0.99285076839423       -0.61876342628101
H            2.78332234214663        2.16456200936241       -0.15378226346298
H            3.57463199319690       -1.65853632689417        0.04514052195668
H           -1.65592400206461        3.07603148500711       -0.01803867938029
H           -2.82611519551340        2.09721566600971       -0.94750720118596
H           -2.87796493595994        2.07477784845510        0.82194352311129
H           -1.17597316708276       -3.20007177606099        0.82695439686830
H           -1.15274129888055       -3.17702885223638       -0.96150160630662
H           -2.56325787788116       -2.55244082757424       -0.07781549575155
H            1.36513632808761       -2.94418636434392       -0.01138701222695
25
 energy: -43.838602007928 gnorm: 0.001228666827 xtb: 6.6.1 (8d0f1dd)
C            3.24339278926930        1.19739451391187        0.07242052814697
N            2.30355819550533        0.11808230246130        0.02147978784197
C            2.60237178697962       -1.23427562770202        0.03711257096898
N            1.41990968885085       -1.93865757673732        0.00268335640155
C            0.39764690385398       -1.06306118665649       -0.01114019906848
C            0.91634225066493        0.22544900515290        0.00832239402313
C            0.11206909580441        1.38502504616469       -0.00375690959365
O            0.48981722265908        2.55944797675603        0.00375536437424
N           -1.27040544274841        1.04623843251896       -0.02938462591877
C           -2.22004891074793        2.14594971490974       -0.04406248466588
C           -1.81867991687107       -0.20023515969575       -0.04747698434111
O           -3.01743877687691       -0.38682429722052       -0.07011445467551
N           -0.94086441297499       -1.30388669378733       -0.03848469652747
C           -1.47771358580721       -2.64501607482747       -0.06348606414050
H            3.66021142525222        1.29569261696494        1.07260751883679
H            4.06330116726250        0.99451802122790       -0.61776081547807
H            2.78302763376025        2.16419586693105       -0.15309772812968
H            3.57457469860330       -1.65856319070471        0.04513753668587
H           -1.65674260210263        3.07712161565669       -0.01956060315036
H           -2.82639172451090        2.09601751175118       -0.94718164808341
H           -2.87676704321821        2.07527739344540        0.82241014293154
H           -1.17577331007754       -3.20095565157679        0.82730127342495
H           -1.15258130721593       -3.17802891839426       -0.96044901073810
H           -2.56344517135829       -2.55472896987718       -0.07711406505929
H            1.36454975156761       -2.94383160910956       -0.01257926179181
25
 energy: -43.838569445056 gnorm: 0.003502230673 xtb: 6.6.1 (8d0f1dd)
C            3.24417958550066        1.19706476870479        0.07168210978535
N            2.30436863809608        0.11784701616305        0.02114337786253
C            2.60243986490270       -1.23444332725602        0.03803115151538
N            1.41937412180898       -1.93810834558653        0.00383331050756
C            0.39723050004277       -1.06235979109045       -0.01021993993996
C            0.91709971305351        0.22564048313020        0.00873926261151
C            0.11377170665859        1.38563391358167       -0.00179599174541
O            0.49370701430920        2.55930631401295        0.00551828133556
N           -1.26924004155911        1.04740892620802       -0.02824236606710
C           -2.22048715818288        2.14585494383120       -0.04358543973849
C           -1.81900954118292       -0.19888748951026       -0.04718026788001
O           -3.01809078848533       -0.38441005180559       -0.07298019449451
N           -0.94135179851707       -1.30315224711560       -0.03757912017582
C           -1.47759927423905       -2.64503385369356       -0.06408061527101
H            3.66015217909791        1.29481766953838        1.07316410216803
H            4.06157568740963        0.99539795541126       -0.62183148575068
H            2.78459242821829        2.16310814763122       -0.15802817325645
H            3.57480104042986       -1.65921308613505        0.04807597244914
H           -1.66241069949022        3.08007336811034       -0.01820998643309
H           -2.82612021524872        2.09338148759195       -0.94697909746638
H           -2.87716801398137        2.07202000487193        0.82246872179633
H           -1.17639295859437       -3.20301886344699        0.82574516309827
H           -1.15068946532038       -3.17714409311430       -0.96089927956967
H           -2.56347719820853       -2.55633188279384       -0.07907080736616
H            1.36266507900512       -2.94310690567552       -0.01013776570103
25
 energy: -43.830109760688 gnorm: 0.070702117701 xtb: 6.6.1 (8d0f1dd)
C            3.23609959940056        1.22711041774240        0.04755603780441
N            2.29934873474996        0.13115379297454        0.01060016464204
C            2.60153569203886       -1.24820172395207        0.04564860319741
N            1.41407613693165       -1.95012778493842        0.00338445760741
C            0.38682951296991       -1.07622955660121       -0.01522816210398
C            0.90888083401070        0.21435963482748       -0.00030234494146
C            0.09935777004711        1.38409867427421       -0.00197924736882
O            0.49172432682294        2.54523524483387        0.01422391313087
N           -1.26109321087711        1.04408639005502       -0.02709582780742
C           -2.21743535631443        2.14270994652514       -0.03949792799170
C           -1.82847391447315       -0.20949186635245       -0.04739299165800
O           -3.01538311155894       -0.38357137089377       -0.07052530720292
N           -0.94003650906709       -1.31029553922661       -0.03946961848007
C           -1.48444165149392       -2.65215329451728       -0.06650142643943
H            3.57628444013396        1.38460933305496        1.05021619772961
H            4.11613846234332        0.93924401713923       -0.55370462690251
H            2.90773235911099        2.28143655892014       -0.20670216032928
H            3.56754768168843       -1.67315019969891        0.05215288579982
H           -1.65691895579437        3.07667582444955       -0.01455364895411
H           -2.82279047863030        2.09478075499111       -0.93662222588261
H           -2.87297786252101        2.06868888555300        0.82895144551349
H           -1.18405693841998       -3.20943047125332        0.82259848968725
H           -1.16242778452094       -3.18323566439683       -0.96554372028898
H           -2.57257607685155       -2.55875834412320       -0.08042703485175
H            1.35185006702159       -2.95349523975007       -0.01222455457175
25
 energy: -43.832810721913 gnorm: 0.037079900168 xtb: 6.6.1 (8d0f1dd)
C            3.25659548121377        1.20499690292493        0.07340059483953
N            2.30712219660890        0.13331147881022        0.01090886543502
C            2.60934852693914       -1.23330069448139        0.04116633689186
N            1.41874716973590       -1.93284786590477        0.00307449958832
C            0.39477428544629       -1.05920375879303       -0.01690205582816
C            0.91646855625071        0.22750339213546       -0.00315032360707
C            0.10053915510514        1.38696805286237       -0.00413603730652
O            0.47992010665457        2.55805629768942        0.01175728394722
N           -1.27025675279033        1.04256419130762       -0.02795770210916
C           -2.22357975206836        2.14078905485129       -0.03881223021052
C           -1.82996005713213       -0.20666316629301       -0.04827350772410
O           -3.02621969900793       -0.38966174261852       -0.07070133752266
N           -0.94092030207875       -1.30179856019025       -0.04049333088942
C           -1.48078667009169       -2.64407601502809       -0.06651105099408
H            3.60335315840267        1.36226894462573        1.09431973510304
H            4.11458970815249        0.95396233092854       -0.56050722674487
H            2.83759722134492        2.18106486238718       -0.25047927243760
H            3.57879921756381       -1.66368294824183        0.04472609858457
H           -1.65121716289959        3.06651140818623       -0.01250972537729
H           -2.83044432523366        2.09594625183536       -0.94048485854179
H           -2.87726987499337        2.07172369353649        0.83064319650847
H           -1.17898674992905       -3.20223481839828        0.82229346432233
H           -1.15699130231661       -3.17638645314637       -0.96410866750764
H           -2.56729683522408       -2.55277415331208       -0.07967979838849
H            1.35486846709443       -2.93698826603672       -0.01002158069347
25
 energy: -43.834649528760 gnorm: 0.013398261654 xtb: 6.6.1 (8d0f1dd)
C            3.25233224784402        1.21893137088846        0.05878665730341
N            2.30397441830086        0.13733597676989       -0.00322320636355
C            2.60410880684213       -1.22956034137885        0.04151711836354
N            1.41625001252097       -1.93563131585233        0.00414355837376
C            0.39340279801657       -1.06266721025497       -0.01641483363435
C            0.91428894964854        0.22513791475266       -0.00554632914663
C            0.10351204746505        1.38168868775152       -0.00285802063490
O            0.48369231508290        2.55397203751863        0.01130127282696
N           -1.27129336299241        1.03931528174610       -0.02629983617037
C           -2.22001510195495        2.14076015454488       -0.03811230229124
C           -1.82792330678628       -0.20811291761054       -0.04670018303278
O           -3.02639229021941       -0.39022591970564       -0.07002924490254
N           -0.94496019266808       -1.30718039440544       -0.03917413797345
C           -1.48577523284410       -2.64959948747163       -0.06635975300551
H            3.59375527684874        1.36619260322159        1.08207915115093
H            4.11394387314219        0.95488774570820       -0.55830222426702
H            2.88229894810113        2.21493258151148       -0.22534788932051
H            3.57241009400856       -1.66494979031139        0.05148199976322
H           -1.65111022408739        3.06889149684565       -0.01313307349012
H           -2.82619718182016        2.09452051897217       -0.94069296282934
H           -2.87440575416475        2.07091412117100        0.82996588724543
H           -1.18558495517660       -3.21046776072521        0.82186273158634
H           -1.16334336961615       -3.18341759759931       -0.96390898875683
H           -2.57195530015190       -2.55811890602735       -0.07973062793112
H            1.35378025140772       -2.94150043042304       -0.00774339352582
25
 energy: -43.834576091821 gnorm: 0.010452740701 xtb: 6.6.1 (8d0f1dd)
C            3.24321017657106        1.22280536380540        0.05284935105460
N            2.30323584338310        0.13097356525193        0.00483343258185
C            2.60329172907705       -1.23612292360183        0.04827067023652
N            1.41571231508056       -1.94248947758339        0.00627200071220
C            0.39496129471086       -1.06664360789056       -0.01177768748603
C            0.91449319654178        0.22119478960158        0.00347356138900
C            0.10894669187414        1.37939903748914        0.00072952231154
O            0.48984973216747        2.55163221990169        0.01749893478069
N           -1.26976808117553        1.04141520956131       -0.02659505860778
C           -2.21860100801048        2.14285303168935       -0.03754575354488
C           -1.82236708578276       -0.20476536359836       -0.04857081519890
O           -3.02112704446108       -0.38648553418715       -0.07401446573637
N           -0.94386781018891       -1.30691245030167       -0.03919785463460
C           -1.48225902730415       -2.64769438856659       -0.06774652100468
H            3.58361370388043        1.38375766870744        1.07282306674030
H            4.10880166064120        0.94551865592807       -0.55324928095833
H            2.86661038362856        2.22011181394642       -0.23490195214539
H            3.57016890459418       -1.67641131484666        0.04816617197173
H           -1.65468936820867        3.07392863053563       -0.01277730836076
H           -2.82616954724729        2.09657401221213       -0.93908216321487
H           -2.87420063375937        2.07028641995756        0.82932069808997
H           -1.17935626044914       -3.20490282868233        0.82207476900241
H           -1.15572154550749       -3.17855652503987       -0.96574879115239
H           -2.56814837222645       -2.55474248058983       -0.08191193117149
H            1.35217391891814       -2.94867510406289       -0.01563122631681
25
 energy: -43.834799173989 gnorm: 0.004907327268 xtb: 6.6.1 (8d0f1dd)
C            3.24942745186208        1.22055137978492        0.05840518212006
N            2.30386102370183        0.13344419216256        0.00234401954643
C            2.60405163530576       -1.23209893399415        0.04376974356924
N            1.41673817356711       -1.93899341617451        0.00404647770247
C            0.39496159494835       -1.06446410070246       -0.01567808076030
C            0.91387896510882        0.22424989507222       -0.00144961799258
C            0.10653098449889        1.38089802161831       -0.00522153051578
O            0.48352258273934        2.55450348237611        0.00981879552104
N           -1.27295358281025        1.04062108658038       -0.02858443943067
C           -2.22123026342677        2.14148963898698       -0.03837818752245
C           -1.82367688644864       -0.20562844872594       -0.04766871482757
O           -3.02265557656885       -0.38931932804073       -0.06921534855444
N           -0.94442642822589       -1.30681743683729       -0.04012791443195
C           -1.48366386572788       -2.64769874864879       -0.06610094733068
H            3.59383447886896        1.36935842736868        1.07965357765896
H            4.11240663868528        0.94779734386843       -0.55454098010563
H            2.87330955397275        2.21891146597986       -0.22333977308881
H            3.57150402702569       -1.67114830337036        0.04595692601312
H           -1.65423570924781        3.07060536974104       -0.01475321699186
H           -2.82947871364584        2.09514476788578       -0.93956049280745