25
 energy: 0.000000000000 xtb: 6.6.1 (8d0f1dd)
C            3.23720132972391        1.16630909158653        0.08434468864950
N            2.29877796055224        0.07527476373246        0.03981602671198
C            2.58028186251803       -1.21425391179017        0.03006175752192
N            1.43813944744728       -1.93419254010258        0.00098261751768
C            0.39035684826767       -1.05887462812143       -0.00790371763344
C            0.93510047688824        0.21347817468824        0.01709077332874
C            0.09450143016486        1.40504290868848       -0.00410946993748
O            0.49712746915594        2.54126690785742       -0.00342325656480
N           -1.25076628431515        1.06271869620815       -0.03085477937476
C           -2.21907191394203        2.15522079838987       -0.05001256521996
C           -1.81739470187490       -0.20012724136556       -0.04692818139228
O           -2.99983858926755       -0.37846413507442       -0.07008877579474
N           -0.92618577614240       -1.30210203518959       -0.03682761236648
C           -1.46982251276835       -2.64643077634382       -0.06029819901142
H            3.71247229913541        1.21471443890471        1.06488839270555
H            4.00791460421487        1.03430799217987       -0.67357688121503
H            2.69909982127087        2.09770098766290       -0.09130154035862
H            3.56654087521359       -1.63682977417947        0.04233139674524
H           -1.67107945562430        3.09322822573871       -0.02552706696334
H           -2.82428927394145        2.09428605349656       -0.95318074103337
H           -2.87644002486466        2.07745706351925        0.81450059976605
H           -1.17061985538665       -3.19584861009707        0.83242224714061
H           -1.14560246782873       -3.17511580834413       -0.95688266944647
H           -2.55549768731684       -2.55659960601237       -0.07459039105944
H            1.38130842369251       -2.94313824728853       -0.01389874052104
25
 energy: -5.796488122833 xtb: 6.6.1 (8d0f1dd)
C            3.24367354192004        1.19733316662971        0.07265721560562
N            2.30402435499514        0.11794968109246        0.02124293253787
C            2.60248302426688       -1.23435392275121        0.03711115825732
N            1.41971883956464       -1.93837997575799        0.00276555502383
C            0.39742861052420       -1.06276814852153       -0.01081691925557
C            0.91674906546091        0.22544582302347        0.00830797955942
C            0.11304676883043        1.38516936171762       -0.00302370175886
O            0.49206774289154        2.55915038497640        0.00401045170760
N           -1.26982120211599        1.04670123566254       -0.02893358860180
C           -2.22017576099886        2.14588111438088       -0.04399569096801
C           -1.81901887179525       -0.19965095661769       -0.04720330071264
O           -3.01797307646942       -0.38577115526826       -0.07156572432188
N           -0.94111436810605       -1.30355686540205       -0.03789162588870
C           -1.47764776381813       -2.64501201256556       -0.06342879387358
H            3.65968454980267        1.29484452827433        1.07386387590915
H            4.06202328557760        0.99537838722715       -0.61962053290318
H            2.78408126790170        2.16384191908044       -0.15513358440910
H            3.57484283607648       -1.65888322692897        0.04613602423078
H           -1.65964082254950        3.07866019081865       -0.01908279313731
H           -2.82628704438885        2.09470895001655       -0.94716856154688
H           -2.87670382279623        2.07367042120838        0.82236405886611
H           -1.17579195327037       -3.20188785130994        0.82685682494367
H           -1.15180568984400       -3.17756705224675       -0.96040073164333
H           -2.56342076552395       -2.55510925293088       -0.07745361021008
H            1.36349765938774       -2.94344968224451       -0.01201599513657
25
 energy: -4.154266130024 xtb: 6.6.1 (8d0f1dd)
C            3.24993904706227        1.22026034746189        0.05794570751916
N            2.30416091496981        0.13305616082284        0.00062791838107
C            2.60361513581281       -1.23128228013280        0.04381021042052
N            1.41657646886603       -1.93811783213792        0.00401813083334
C            0.39430311510165       -1.06462626333944       -0.01565140303906
C            0.91327217530288        0.22463389103598       -0.00229366781294
C            0.10900422408771        1.38094161508128       -0.00321023760739
O            0.48461352246588        2.55463538124218        0.01178607316633
N           -1.27348936454131        1.04041318627791       -0.02709510435278
C           -2.22020058073230        2.14133846320768       -0.03789874033760
C           -1.82398041712860       -0.20486288336309       -0.04700968901939
O           -3.02340612665311       -0.38886556569890       -0.07078920946021
N           -0.94533221236914       -1.30717621445538       -0.03930019064227
C           -1.48418964505652       -2.64827664823234       -0.06646800509013
H            3.59067330989916        1.37057074615412        1.08022460138816
H            4.11338954240936        0.95132379233369       -0.55567889701568
H            2.87475850315691        2.21665458983185       -0.22832002733745
H            3.57117924027275       -1.67017320883429        0.04884401549476
H           -1.65351116622179        3.07067201037641       -0.01421442967695
H           -2.82796495700940        2.09412696461948       -0.93944629794394
H           -2.87432416284741        2.07036208855255        0.83034815265531
H           -1.18270588520397       -3.20801627317694        0.82223638832729
H           -1.16024326063738       -3.18072136986514       -0.96438370577505
H           -2.57043930829989       -2.55693761135602       -0.07990839223441
H            1.35309565404080       -2.94388466676908       -0.01061183150318
25
 energy: -1.627326109151 xtb: 6.6.1 (8d0f1dd)
C            3.25845265806391        1.24225138933923        0.04028138970326
N            2.30649051066039        0.14543934926799       -0.02658641778064
C            2.60418825322961       -1.23027000880866        0.02820328147598
N            1.41281311993574       -1.93853454754394        0.00462896365736
C            0.39157260981274       -1.06661402543335       -0.02022173557225
C            0.91188483254429        0.22296866804050       -0.01524311060269
C            0.10525652107905        1.37536948854301       -0.00281743723166
O            0.47661993665720        2.54901658242453        0.02053152565197
N           -1.27725761668473        1.03360164551976       -0.02477119414718
C           -2.21998488422845        2.13709144254269       -0.03137151668403
C           -1.82881863420541       -0.21077596530721       -0.04720394903239
O           -3.02865456684376       -0.39311486097504       -0.07056502326147
N           -0.94923973839919       -1.31091236636381       -0.04075505111373
C           -1.49042800400369       -2.65147519755485       -0.06981515004714
H            3.51664901164500        1.44554452506485        1.07934721162791
H            4.16015611815994        0.91010015102494       -0.48733628270931
H            2.96910597743931        2.26057494147187       -0.30751644906615
H            3.56603315169277       -1.68285215337008        0.05498903030366
H           -1.64704146671849        3.06279069849112       -0.00657420660018
H           -2.82809648673831        2.09635259460784       -0.93243560467662
H           -2.87348457895358        2.06665878121759        0.83733057507729
H           -1.18917249842147       -3.21352509076134        0.81758088778949
H           -1.16904694990241       -3.18406153237371       -0.96874123016222
H           -2.57705870979763       -2.55759272457022       -0.08235718510593
H            1.34211997841209       -2.94456275585634       -0.00960607174635
25
 energy: 1.355338220024 xtb: 6.6.1 (8d0f1dd)
C            3.27041379137480        1.26260162676068        0.02281492061742
N            2.31140368921805        0.15491377197446       -0.05686023700923
C            2.60406684392486       -1.22974553591408        0.00280228257467
N            1.41000852475373       -1.94105658294553        0.00568953067685
C            0.38975019549402       -1.06995396186296       -0.02301202911570
C            0.91291486806959        0.21952984677384       -0.02811681751862
C            0.10323985542904        1.36840951777000       -0.00187470525258
O            0.47050810490778        2.54214460256217        0.02915209374834
N           -1.28019564699998        1.02654235749523       -0.02172087246822
C           -2.21888914515839        2.13300800523224       -0.02473850121482
C           -1.83304225123329       -0.21677122082329       -0.04685899096855
O           -3.03322550715918       -0.39775761730635       -0.07080336683308
N           -0.95259019494302       -1.31505445288017       -0.04139075628364
C           -1.49675302043435       -2.65493760698218       -0.07353106127140
H            3.44118411747031        1.52078344400526        1.07190024835250
H            4.20297541963543        0.87370112866566       -0.41340531336045
H            3.06475217229476        2.29211385960568       -0.39136750148833
H            3.56000350939095       -1.69548649049442        0.05826200049021
H           -1.64045841308334        3.05550181511270        0.00110903057877
H           -2.82739886367111        2.09855501300320       -0.92539612209909
H           -2.87187444975605        2.06341632643545        0.84433457654734
H           -1.19652536089712       -3.22033193389560        0.81214622562792
H           -1.17772700622734       -3.18715248306204       -0.97365350597280
H           -2.58378573906380       -2.55811728491907       -0.08543804773465
H            1.33188892714131       -2.94711258949838       -0.00606166184437
25
 energy: 5.020067245425 xtb: 6.6.1 (8d0f1dd)
C            3.28372192928809        1.28528358079953        0.00735171789684
N            2.31976943267272        0.16206595246716       -0.08951116606224
C            2.60624487917100       -1.23023031315649       -0.02327834993677
N            1.41267965675481       -1.94506305895787        0.00417947161853
C            0.39069083620922       -1.07514181145091       -0.02544570516346
C            0.91702215640630        0.21423294041063       -0.04018007799266
C            0.10324773359766        1.35992410461969       -0.00117636688423
O            0.46737542660925        2.53362361410831        0.03583094114781
N           -1.28192386143709        1.01942353217315       -0.01814306921148
C           -2.21730536187963        2.12877280049190       -0.01776671380430
C           -1.83584895402609       -0.22283924498140       -0.04586814059328
O           -3.03639164332930       -0.40298474820943       -0.06967051232933
N           -0.95415658835801       -1.31960562789315       -0.04181226011313
C           -1.50266483031867       -2.65827267394695       -0.07692385328246
H            3.36387431101080        1.59203653934855        1.05786787835384
H            4.23822827469445        0.85074165585820       -0.33103793443184
H            3.16356882654755        2.32160249230298       -0.46697663962012
H            3.55475360231574       -1.70996104112067        0.05939822381165
H           -1.63465570902927        3.04873081860072        0.00960195378328
H           -2.82606744723802        2.10056620125915       -0.91819240488496
H           -2.87058065831748        2.05964523551003        0.85110405917808
H           -1.20329931492888       -3.22686958873683        0.80699326244350
H           -1.18628096483643       -3.19002199207901       -0.97830820223143
H           -2.59020462469182       -2.55837188540050       -0.08801593949693
H            1.32497228882998       -2.95146733745741        0.00323515392711
25
 energy: 9.160537355569 xtb: 6.6.1 (8d0f1dd)
C            3.29121168730705        1.29259185698165       -0.00342577018872
N            2.32674960706674        0.16125528297423       -0.11904525994737
C            2.60800329986414       -1.23466731516962       -0.04817411601005
N            1.41454695444541       -1.95068046323303       -0.00601942813759
C            0.39076508755363       -1.08152926751345       -0.02754516015288
C            0.92128143201165        0.20715892787845       -0.04824352702649
C            0.10353133156640        1.35057878826949        0.00097889155378
O            0.46510328234077        2.52413646225404        0.04275609158121
N           -1.28383203656045        1.01235432618192       -0.01413217449307
C           -2.21625201382380        2.12443358289441       -0.01069011861802
C           -1.83877092302451       -0.22882860453401       -0.04511798460267
O           -3.03960847622773       -0.40825475186029       -0.07058556679946
N           -0.95625421794819       -1.32450031665317       -0.04217260309987
C           -1.50893533230244       -2.66164070242915       -0.07985033556884
H            3.28458455191333        1.66115380566590        1.03147747163749
H            4.26555055068614        0.83366552599190       -0.23979409628758
H            3.26801726872016        2.34137560838974       -0.52687349157584
H            3.54990346363034       -1.72492321266613        0.05896031651984
H           -1.62964286080090        3.04197550416839        0.01689750345567
H           -2.82626297303624        2.10136706783842       -0.91030250730519
H           -2.86866515142482        2.05599338241148        0.85894334329116
H           -1.21095164615003       -3.23295272004185        0.80277122904231
H           -1.19399980459491       -3.19251758184750       -0.98215206265242
H           -2.59689759189671       -2.55879027597187       -0.09062987961023
H            1.32346571392500       -2.95791838378759        0.01219639980938
25
 energy: 14.002098209381 xtb: 6.6.1 (8d0f1dd)
C            3.28877619951245        1.29277679654737       -0.00590423536219
N            2.32899657748586        0.15768852480583       -0.14922232993891
C            2.60866186109539       -1.23761683108520       -0.07024304676540
N            1.41772915328767       -1.95575523869437       -0.01793614629599
C            0.39020591260507       -1.08899238573296       -0.03300117111491
C            0.92267776059948        0.19936351996409       -0.06003771934664
C            0.10322032610519        1.34104527904698        0.00182941393717
O            0.46404914069685        2.51402182665283        0.04780022710210
N           -1.28613855253901        1.00493834765966       -0.01025971550576
C           -2.21479727239506        2.12011776247176       -0.00291960803387
C           -1.84157787758916       -0.23549584875037       -0.04466103212414
O           -3.04266064468509       -0.41447592720024       -0.07173169262072
N           -0.95859796222714       -1.33070434368073       -0.04267028139936
C           -1.51620173402863       -2.66585920148066       -0.08182503377666
H            3.20170788138664        1.71870830171274        0.99896145515117
H            4.26900555076259        0.82266043430938       -0.14494449584948
H            3.38716840572449        2.35580651965138       -0.56711657624669
H            3.54502672735481       -1.73627241663604        0.05795365541597
H           -1.62336548514748        3.03473935112937        0.02340877884480
H           -2.82736783933427        2.10194963912946       -0.90092012755664
H           -2.86420487692945        2.05279746868546        0.86899258674498
H           -1.22020405615413       -3.23945904191899        0.79989054465963
H           -1.20341755868725       -3.19672700112224       -0.98472161224224
H           -2.60438725649609       -2.55892975609732       -0.09184542615801
H            1.33082662876418       -2.96430504506536        0.00731598444686
25
 energy: 20.167895839212 xtb: 6.6.1 (8d0f1dd)
C            3.28394866764985        1.28769112373452       -0.01763617392635
N            2.33022868786235        0.14775982756696       -0.15859671483035
C            2.60558370591583       -1.24522169132058       -0.08855276424442
N            1.41523955760733       -1.96306607734416       -0.02476711517061
C            0.38711467554115       -1.09632812232670       -0.03027428275247
C            0.92381322053558        0.19065522276052       -0.06176110272169
C            0.10366516794851        1.33141349650670        0.00942281292290
O            0.46383462737168        2.50385054769347        0.05792731115678
N           -1.28791877641268        0.99726570364958       -0.00345500455290
C           -2.21245135133979        2.11609854278827        0.00496384053871
C           -1.84435788867137       -0.24220892152892       -0.04279542782639
O           -3.04561473496060       -0.42085594704425       -0.07360284400186
N           -0.96199286304156       -1.33744575358597       -0.04154127096000
C           -1.52426679512923       -2.67039364795933       -0.08541132870352
H            3.11748726420328        1.77682234474287        0.94232782960923
H            4.26418723773029        0.81538085996160       -0.05416470713384
H            3.49632574206931        2.37064862325331       -0.62578305456178
H            3.53711615106177       -1.74992290687691        0.06027345500448
H           -1.61599724412704        3.02748529716831        0.03278230275923
H           -2.82383640727744        2.10409351764352       -0.89391279509583
H           -2.86240539010163        2.05033287596026        0.87649389349989
H           -1.23121803715310       -3.24765298009433        0.79471119341966
H           -1.21262169502884       -3.19975396586578       -0.98948368013441
H           -2.61257498890978       -2.55897718491161       -0.09606515255109
H            1.33586459337668       -2.97149566202863       -0.00639157166593
25
 energy: 28.208337576864 xtb: 6.6.1 (8d0f1dd)
C            3.28076169574588        1.27096576390339       -0.00470734142275
N            2.33430797495210        0.13112214556938       -0.15221890480886
C            2.60221237981543       -1.26066563284859       -0.10716884575081
N            1.41146223513968       -1.97361436418775       -0.03484886633834
C            0.38587621456395       -1.10508329905443       -0.03454720302529
C            0.92731099036966        0.18114688816757       -0.05851793797605
C            0.10791230733857        1.32378792819846        0.01064563780590
O            0.46762038716777        2.49552131516159        0.06193569058898
N           -1.28739847622911        0.99094053986089        0.00116408611497
C           -2.20918398692202        2.11283644489794        0.01057207048985
C           -1.84511475398623       -0.24778267905431       -0.04025739580873
O           -3.04638151876113       -0.42687160285287       -0.07030933144256
N           -0.96356705352166       -1.34387365193618       -0.04155789380953
C           -1.53174082889096       -2.67419696543461       -0.08417364685614
H            3.02572799981587        1.81676483755139        0.90673757775792
H            4.26165315259662        0.80202197403826        0.04601489011485
H            3.61151593455796        2.39885086643191       -0.64860821045748
H            3.53105382052502       -1.76621655304073        0.05375372190412
H           -1.60887072073009        3.02167354255785        0.03833542952312
H           -2.82006825872655        2.10614987189154       -0.88863145913869
H           -2.85950943563176        2.04929033767432        0.88212586059213
H           -1.23797728437893       -3.25174674445308        0.79540552472362
H           -1.22414661012297       -3.20470825045246       -0.98882699448696
H           -2.62027928321493       -2.55736089557592       -0.09109167757287
H            1.33997188792534       -2.98050482639139       -0.02281808082688
25
 energy: 48.013066377516 xtb: 6.6.1 (8d0f1dd)
C            3.25209379257599        1.19816141477313        0.03224222395539
N            2.33728817083554        0.09630623133243       -0.10798418644177
C            2.59150183377130       -1.28000769441821       -0.09729888652946
N            1.40214331419879       -1.99018058402893       -0.04206701561564
C            0.38279392330455       -1.11487584391434       -0.03964784073456
C            0.93127036579768        0.16664254450184       -0.04958865286124
C            0.11414828382711        1.32035930095834        0.00898549007554
O            0.47474501637283        2.48498694027173        0.06721677769409
N           -1.28094617702077        0.98778442177927        0.00620941735747
C           -2.20467857169902        2.11007579077687        0.01822290602638
C           -1.84338327915110       -0.25234087137582       -0.03700269510466
O           -3.04361735308575       -0.42989998628502       -0.07085841042667
N           -0.96492119571451       -1.34969015892093       -0.04059303199600
C           -1.53893854815186       -2.67804259279732       -0.08594994354152
H            2.93261297509791        1.85249272412584        0.84425518042689
H            4.25149505076095        0.78189068996772        0.13338319624457
H            3.79077101622531        2.54313255273511       -0.68300364403665
H            3.52406873126128       -1.78292548217955        0.03740522536362
H           -1.60341613571450        3.01760688154572        0.04755666336470
H           -2.81542475063246        2.10852096057544       -0.88118821011037
H           -2.85538443332746        2.04596757936959        0.88959423584277
H           -1.24637066266499       -3.25716173855240        0.79246720492009
H           -1.23318213075525       -3.20733846135492       -0.99164189028692
H           -2.62709545945896       -2.55658456799732       -0.09078084691050
H            1.33155684300636       -2.99534625189929       -0.03528657033475
25
 energy: 58.945702073090 xtb: 6.6.1 (8d0f1dd)
C            3.21121347831166        1.11580181376595        0.06358817880667
N            2.33206563445289        0.05356821144846       -0.06492990695313
C            2.57890211784676       -1.29593218283643       -0.07682660110263
N            1.39144850084571       -2.00844404766631       -0.04421013354988
C            0.37810632955176       -1.12633723451548       -0.03977393390052
C            0.93247380999690        0.14966025024036       -0.03412464505130
C            0.11828426331399        1.31772905404433        0.01276151428996
O            0.48215634127084        2.47332496055564        0.07414916399838
N           -1.27180530925291        0.98667171498632        0.00846231800021
C           -2.19925791081908        2.10804812263540        0.02501067791211
C           -1.83904884397748       -0.25639783080029       -0.03478059046130
O           -3.03771168625073       -0.43027008543835       -0.07169213161166
N           -0.96609771185897       -1.35533929030224       -0.03767758893660
C           -1.54543208416395       -2.68216623653880       -0.08558798024075
H            2.85517624194104        1.87849987711100        0.74733413911410
H            4.23052109110297        0.77499891336339        0.20009703425457
H            3.98155237721161        2.73560489518302       -0.70173316258761
H            3.52051515944364       -1.78184738482558        0.02976375703914
H           -1.59767499359780        3.01440844481742        0.05588217787824
H           -2.81175325035295        2.10909652837476       -0.87320094630589
H           -2.84926450650406        2.04291789983625        0.89687217192798
H           -1.25386731599240       -3.26312639568730        0.79099946550529
H           -1.24366515342062       -3.20974723372154       -0.99332087940225
H           -2.63159584538205       -2.55617867472897       -0.08371213482876
H            1.32059806753741       -3.01184881162448       -0.04484292231718
25
 energy: 61.307130914217 xtb: 6.6.1 (8d0f1dd)
C            3.17636050862731        1.07295711560642        0.07487307689112
N            2.32460665127059        0.02645442809270       -0.04242403534905
C            2.57363144936472       -1.31243989413699       -0.05961202831465
N            1.38213576614028       -2.02326773629677       -0.04201595552477
C            0.37460502961804       -1.13710368928205       -0.04011580170575
C            0.92783036500329        0.13852305884556       -0.03599626036549
C            0.12066674844286        1.31244494466816        0.01619397416577
O            0.49186339323700        2.46375703498017        0.08155885446894
N           -1.26490653483855        0.98669360527850        0.00837814027542
C           -2.19420831907429        2.10700913798730        0.03202975914896
C           -1.83468524278715       -0.25746149294604       -0.03392366798453
O           -3.03354971929546       -0.42639243211903       -0.06776653887167
N           -0.96706771657265       -1.35921553982947       -0.03535083312935
C           -1.54956996518124       -2.68511854940589       -0.08517564656063
H            2.79102763512700        1.90157688709049        0.64869814075782
H            4.19068216171201        0.77223990869237        0.26930565781640
H            4.12555453954323        2.87253668011661       -0.67934008276809
H            3.52395233109352       -1.78389743344870        0.03540842326422
H           -1.59156711349644        3.01170144269936        0.06318487810910
H           -2.81054119080369        2.11033637910592       -0.86309816047783
H           -2.84278497969836        2.04038186357916        0.90505034063245
H           -1.26177818752629       -3.26767211107339        0.79066707598965
H           -1.25243355280895       -3.21289970133342       -0.99421986058151
H           -2.63248519146252       -2.55542466089639       -0.07934047422070
H            1.30883185926382       -3.02524032387536       -0.04867825440825
25
 energy: 61.987704870481 xtb: 6.6.1 (8d0f1dd)
C            3.15310803486861        1.05148246189687        0.08804136513507
N            2.31824941474295        0.00799436351364       -0.02044046962792
C            2.57046856965727       -1.32741712779996       -0.04320179942161
N            1.37387911835754       -2.03477862325498       -0.03961785457755
C            0.36999715241760       -1.14663061651918       -0.03853148136175
C            0.92228334141017        0.12849370698880       -0.03261800083552
C            0.12081904676070        1.30639825954865        0.02039434292794
O            0.49785330169650        2.45634897986769        0.08422666750015
N           -1.26064301422837        0.98570289020953        0.00885583289599
C           -2.19064865064689        2.10500244506246        0.03769895514624
C           -1.83242851062767       -0.25776153939244       -0.03414460603689
O           -3.03185498832676       -0.42200758133085       -0.06475997914304
N           -0.97106081478346       -1.36386864539826       -0.03283107546666
C           -1.55382694051298       -2.68940196605288       -0.08194841909001
H            2.73152162535039        1.92844232237334        0.56100400346800
H            4.15807974219183        0.77634559194652        0.34966643998410
H            4.21990513798480        2.99960113948346       -0.64032978279336
H            3.53120366603726       -1.78485093469431        0.04266885975557
H           -1.58444561550679        3.00654594331736        0.07009327210881
H           -2.80738426789298        2.10701192256921       -0.85832503374942
H           -2.83768055647653        2.03787613922117        0.91225841349816
H           -1.27076780241394       -3.27415804614955        0.79259327232829
H           -1.26092964942242       -3.21693099222929       -0.99287020067436
H           -2.63578643741064       -2.56245735328889       -0.07711575143791
H            1.29635944156771       -3.03563649169313       -0.04945764511455
25
 energy: 62.660684038306 xtb: 6.6.1 (8d0f1dd)
C            3.12892096033203        1.03906437832709        0.09878870957692
N            2.31042147759725       -0.00762986532813        0.00046355683123
C            2.56481903636970       -1.34174997533215       -0.02541326246977
N            1.36469785801720       -2.04618043174755       -0.03593641556142
C            0.36387573395456       -1.15610062063845       -0.03671819258708
C            0.91595060963989        0.11733242530225       -0.02709072915455
C            0.12061793428424        1.30030506749768        0.02142622351041
O            0.49821671031966        2.45220899241250        0.07115703597190
N           -1.25671606316367        0.98289127251002        0.01076357971067
C           -2.18478940070317        2.10326995211005        0.04127177647575
C           -1.83212770840994       -0.25894124423930       -0.03507575090758
O           -3.03193699251316       -0.41711212720684       -0.06356481090403
N           -0.97707942092343       -1.36818863395793       -0.03616618944781
C           -1.55692128831611       -2.69393510199194       -0.08052837704444
H            2.67546338839996        1.95229241831307        0.47821349680291
H            4.12138265322832        0.78654035742828        0.42296501086288
H            4.26038498324339        3.14432892986957       -0.58530341587330
H            3.52795132510982       -1.79483221513463        0.05683450398898
H           -1.57507108328337        3.00170077286134        0.07717587386665
H           -2.80140530955377        2.10350088597201       -0.85500248060595
H           -2.83091386046305        2.03538138462114        0.91549125506309
H           -1.27593967882554       -3.27964059393634        0.79435385564552
H           -1.26947100910541       -3.22060102267595       -0.99301712790824
H           -2.63865098439793       -2.56922866261492       -0.07962331569286
H            1.28390794668576       -3.04617693631678       -0.04367298740795
25