72
 energy: 0.000000000000 xtb: 6.6.1 (8d0f1dd)
N           -1.47310921155849        2.74401293103706        2.22063921685122
C           -1.55658879776851        2.16490285539332        1.13274273951491
C           -2.74549199786261        2.05621232186130        0.23826248438941
C           -3.31377553111525        0.64333411542669        0.32332512650568
C           -4.30230156009016        0.24487110156316       -0.58026161703006
C           -4.85238763031941       -1.02286490450319       -0.53363588718165
O           -5.81419972815119       -1.48606034185536       -1.36157882725342
C           -6.39655633239252       -0.60827000183299       -2.29568474302620
C           -4.39972501531283       -1.94646102182611        0.44396929121966
O           -4.98748311285188       -3.16145997157803        0.41085992006324
C           -4.66362127904578       -4.10093827755394        1.40909127743729
C           -3.42072513477031       -1.54561384810496        1.33436546260297
C           -2.88302799614223       -0.26315800396994        1.27400150770375
C           -2.19303798107274        2.30467000305896       -1.18742977106749
C           -1.26651538239283        1.17243369445008       -1.65249429687285
C            0.01082524939134        1.09745454476277       -0.89354803499847
N            0.61779393476578       -0.02034948052406       -0.57705522512502
C            2.00145210352228       -0.02376006389122       -0.15611399603240
C            2.92554934655222       -0.53865282675074       -1.27700088804721
C            4.35756843073516       -0.43050757231754       -0.83075544324989
C            5.07346135469827        0.73206409086248       -1.03980965825901
C            6.38627986649936        0.84224441421807       -0.60344822702769
C            7.00047264773336       -0.20824756335880        0.05722314418200
O            8.26703657141718       -0.21011313101264        0.52410943644933
C            9.06912227848686        0.92943601033931        0.31863058007678
C            6.27039964270142       -1.40439753960823        0.28033466008274
O            6.94829939911432       -2.38012925705718        0.92751999079483
C            6.31537317745639       -3.61583200086742        1.15217711710877
C            4.96302794628964       -1.49347471867959       -0.16064430359178
C           -0.05511211367372       -1.29906247805359       -0.62085686319744
C           -3.86758037025447        3.07992600430699        0.58498060215443
C           -4.49286159663096        2.77383493050346        1.94313289484366
C           -3.39165179876499        4.52917666589254        0.54797523472093
H           -4.66030026466202        0.94509067363451       -1.31640568823548
H           -6.85037928558380        0.25803162192116       -1.80468845313260
H           -7.17287442604349       -1.18600110843259       -2.79318157561361
H           -5.66836817451085       -0.26952966318766       -3.04040255244073
H           -4.88416720672258       -3.71589460520039        2.40913542187496
H           -5.29223570620378       -4.96637458756866        1.20969236903657
H           -3.61139813139015       -4.39919835331056        1.35529357841967
H           -3.07077796610445       -2.21868765711333        2.10002662693138
H           -2.14562754426994        0.02067850696302        2.01001344383370
H           -3.02188875377605        2.38238012313952       -1.88813545054866
H           -1.65198530896729        3.25146700677685       -1.20556284570283
H           -1.81103374245520        0.23006524641044       -1.62116301628650
H           -0.99335688527853        1.37490212198123       -2.69443256973690
H           -0.67628064361333        1.65183887049447        0.61785727145403
H            0.63525841192517        1.98466369793744       -0.92314021190751
H            2.11132552493482       -0.65949692842762        0.72532613231274
H            2.30680473056284        0.98978251704176        0.11078972794250
H            2.76694198818247        0.06750735147374       -2.17075252200790
H            2.67954581369920       -1.57455627803457       -1.51167743520200
H            4.62169998552446        1.56295612048703       -1.56123579000624
H            6.92357674630170        1.75715815945204       -0.79119596719031
H            8.65159112996149        1.81001823324363        0.81701555159939
H            9.20136171144928        1.14042857828877       -0.74698991949293
H           10.03428838009630        0.69003240176163        0.76064937965836
H            7.05567174969094       -4.23621171795340        1.65347565939075
H            5.43848001056755       -3.50813558175093        1.79970565785717
H            6.02060041905269       -4.09420497120334        0.21253282636366
H            4.40102758497114       -2.40127266373392       -0.00490198249042
H           -0.22071299714579       -1.61775583601871       -1.65116008982042
H           -1.01972258008625       -1.24102717432227       -0.10935206830928
H            0.55899954147532       -2.04486085926761       -0.12333730421426
H           -4.63991875734388        2.95501092798550       -0.18098088071825
H           -3.76095216473977        2.90314704960906        2.73380821053058
H           -4.87457614030224        1.75695641518947        1.97884603101694
H           -5.31925552549014        3.45579210326349        2.12325564252114
H           -2.60025590131176        4.69225046143352        1.27368918226171
H           -3.03987406413880        4.81897652321898       -0.43870975059559
H           -4.22191740670577        5.18069648090034        0.80616693961239
H           -0.59832433787845        2.77744694953323        2.72958984441332
72
 energy: -5.761414552135 xtb: 6.6.1 (8d0f1dd)
N           -1.50110510557860        2.78454325656143        2.23927776144509
C           -1.55259894189727        2.15625780727827        1.15326957313858
C           -2.74578441114530        2.06315723902662        0.24658907957225
C           -3.31444199433665        0.65160353179123        0.32770810752391
C           -4.30089611697651        0.24774334528165       -0.57436380167944
C           -4.84695200274804       -1.02104318169226       -0.52676165054269
O           -5.81727644360581       -1.48579657105583       -1.36335620177570
C           -6.38900868435857       -0.60542480570245       -2.29717824711668
C           -4.39563028560393       -1.94165585148459        0.44814342396847
O           -4.97535946787812       -3.17508882408408        0.41480642656720
C           -4.66397811584347       -4.11798227825068        1.41053630877887
C           -3.42427337952299       -1.53759963758303        1.34232828423178
C           -2.89020776860519       -0.25503106905413        1.28231569849067
C           -2.19147508480687        2.30628943460949       -1.18116346785690
C           -1.26395633349573        1.18088627950591       -1.66728287777407
C            0.00550219908140        1.12929323168197       -0.89896099834163
N            0.63470992670596       -0.04743152871528       -0.56557704050195
C            2.00304613472883       -0.03378943211536       -0.16287608479054
C            2.93717609408409       -0.54139788850050       -1.28261833070414
C            4.36096982079059       -0.43406595032609       -0.84015575446536
C            5.07762826408685        0.73042038942409       -1.04382738727839
C            6.38821243873202        0.84205684543883       -0.60401543160621
C            6.99835877993926       -0.20928494036462        0.05601312668905
O            8.27647756852582       -0.21163416075494        0.52778501901636
C            9.07029916335048        0.92776364012449        0.32071216518293
C            6.27159135493588       -1.40112449590003        0.27795043596510
O            6.95443998918816       -2.38343111821392        0.92989457835370
C            6.31811175532628       -3.61488180034804        1.15206682899135
C            4.96712356740657       -1.49440365106364       -0.16585713548623
C           -0.05006564269030       -1.30448973050790       -0.62841257626583
C           -3.87022457688866        3.08062128343886        0.58144631792430
C           -4.50120994792562        2.78068023950875        1.93969653802775
C           -3.39655412264801        4.53298351556759        0.54594073994587
H           -4.65195197290698        0.94585121842318       -1.31730493443592
H           -6.84274908644305        0.26427406292961       -1.80981754578189
H           -7.16671067596682       -1.18059979234646       -2.79768573723451
H           -5.65864143115940       -0.26730098721494       -3.04080805322991
H           -4.85683045943370       -3.72614487081337        2.41349000784463
H           -5.32567202015572       -4.96047679125635        1.21569716718210
H           -3.62638793308860       -4.47298168613677        1.36626251952277
H           -3.07427285511624       -2.21327122162963        2.10680490739105
H           -2.15091005861913        0.03057879901049        2.01492696965200
H           -3.02183462449598        2.39783401498016       -1.88181775468126
H           -1.64187244998610        3.24949430754936       -1.19345453082130
H           -1.80418272739855        0.23534358402816       -1.62340891106932
H           -1.01519383722186        1.38123905490595       -2.71738934818088
H           -0.68590372351616        1.65171035538410        0.65933114571324
H            0.64863294032416        1.99072576591961       -0.94782145335523
H            2.12146012622856       -0.66665623447804        0.72320115915397
H            2.30072974417073        0.98346901401750        0.10549515923567
H            2.76905859799358        0.06636762595351       -2.17369210937702
H            2.68242696738487       -1.57601386130824       -1.51687756947775
H            4.62338719626835        1.56081824005485       -1.56392018079221
H            6.92562851099646        1.75810946283902       -0.78966961956934
H            8.65265733937241        1.80996157561838        0.81803265250034
H            9.20340263655763        1.14074069664237       -0.74548534235266
H           10.03668955908353        0.69066117668212        0.76283911804154
H            7.05743781783391       -4.23644384082243        1.65489015386180
H            5.43944059031951       -3.50786951092503        1.79769662541245
H            6.02332499094475       -4.09479203803455        0.21241573599866
H            4.40330104956027       -2.40140846247382       -0.00967090336964
H           -0.22138318988650       -1.62295729505375       -1.66284079762256
H           -1.01611759538767       -1.24285403395713       -0.11850380296578
H            0.55937363740803       -2.05491133975703       -0.13052028084102
H           -4.64326561808145        2.95881288154676       -0.18637795929416
H           -3.76640392732283        2.90988051529355        2.72738953627302
H           -4.88043617891505        1.76227073977299        1.97506382057646
H           -5.32914411539118        3.46301996474943        2.11736399862418
H           -2.60591641613938        4.69257356854875        1.27269476489389
H           -3.03835494266729        4.81918572503376       -0.44004394863972
H           -4.22812309796459        5.18634479770393        0.80008873044428
H           -0.60968572860808        2.78219500428183        2.73176187045115
72
 energy: -5.791241804474 xtb: 6.6.1 (8d0f1dd)
N           -1.50993444684902        2.79850046370990        2.24576786779113
C           -1.55576836968916        2.16015070075228        1.16495873428399
C           -2.74454167019448        2.06623847524663        0.25071394746435
C           -3.31441006327546        0.65523282916474        0.33185403883508
C           -4.29899835950090        0.24882237948236       -0.57073394516135
C           -4.84487942028382       -1.02102604558389       -0.52254798220327
O           -5.81516925975131       -1.48250618127866       -1.36240512946211
C           -6.38154232611222       -0.60146309922846       -2.29981255625315
C           -4.39195676735667       -1.94304636568377        0.45282900539757
O           -4.95803631871110       -3.18463437459199        0.41784322611568
C           -4.66553516726340       -4.13701197646555        1.41357331232572
C           -3.42583030795839       -1.53267210274506        1.34944621297543
C           -2.89386046307301       -0.24925273030906        1.28992068204301
C           -2.18696639298797        2.31002266475952       -1.17628109327012
C           -1.26338211013997        1.18425030672432       -1.67047288671712
C            0.00782941186757        1.13138765310562       -0.90460719852658
N            0.63579410366615       -0.04792571012898       -0.56844367952613
C            2.00482375509008       -0.03613483537604       -0.16701460162296
C            2.94032191504430       -0.54283824367674       -1.28644374376437
C            4.36383940138290       -0.43518573696313       -0.84346967142734
C            5.08023688679804        0.72962947020280       -1.04604490519692
C            6.39049868586052        0.84164239581705       -0.60503792092414
C            7.00075735610119       -0.20988349909724        0.05473317856247
O            8.27873781272405       -0.21216068444588        0.52713661903309
C            9.07220535616713        0.92772322574059        0.32111888231196
C            6.27407090931778       -1.40181327131243        0.27611294352581
O            6.95655241254380       -2.38433414375135        0.92863430659006
C            6.31955406374970       -3.61549708618059        1.15054708331839
C            4.96992207067767       -1.49528879546190       -0.16879406151080
C           -0.04885810079954       -1.30564843247435       -0.63460044545722
C           -3.87195913988696        3.08334804761871        0.57895300317169
C           -4.50899164889757        2.78630199626563        1.93492445676299
C           -3.39964052322540        4.53612430653119        0.54302685581211
H           -4.64630933814236        0.94606978382973       -1.31672708943475
H           -6.83591115016053        0.27049609840463       -1.81676827381957
H           -7.15881670088024       -1.17516051465987       -2.80302332440536
H           -5.64804634934064       -0.26571873744412       -3.04161767562926
H           -4.83204696165895       -3.73724733221979        2.41710955828193
H           -5.36009080964003       -4.95384610446970        1.22211248262306
H           -3.64492686915393       -4.54719413884471        1.37706840288811
H           -3.07809339172169       -2.20763824865889        2.11548741619293
H           -2.15615809322967        0.03878683101026        2.02321746337564
H           -3.01653425270802        2.41140328092743       -1.87696004194676
H           -1.63111200263521        3.24942645428504       -1.18408918082502
H           -1.80307269800278        0.23910770743698       -1.62391211604095
H           -1.02403128672285        1.38464624994931       -2.72418598564853
H           -0.68711243660282        1.65173568853116        0.68273405879115
H            0.65039794100658        1.99334939472704       -0.95272256864717
H            2.12526570053095       -0.66828277204552        0.71953106707145
H            2.29995309242680        0.98184805706780        0.10014544210098
H            2.77275399962612        0.06470122092654       -2.17790009943827
H            2.68640913567043       -1.57757194068522       -1.52119618009793
H            4.62578460707838        1.56004722542899       -1.56587943242845
H            6.92780857098295        1.75787716402191       -0.79031094718450
H            8.65366309130531        1.80916135451255        0.81897470678827
H            9.20552500311295        1.14192338792269       -0.74483400114744
H           10.03871259628004        0.69120024158632        0.76345756482310
H            7.05800693458641       -4.23747896574498        1.65417981975482
H            5.44034964443074       -3.50770363159509        1.79526245937109
H            6.02496549236262       -4.09567889686126        0.21092991100393
H            4.40597671298198       -2.40222159073168       -0.01293661445040
H           -0.21924320250253       -1.62327846634172       -1.66979447069149
H           -1.01592743857879       -1.24338973440478       -0.12695777131932
H            0.55788047589592       -2.05833019811561       -0.13607712172581
H           -4.64229173113874        2.96049774553741       -0.19167338517119
H           -3.77684439274519        2.91763896780588        2.72440253855151
H           -4.88751527778560        1.76772192539475        1.97061342845916
H           -5.33821617592005        3.46858440653726        2.10811465891992
H           -2.61257168382580        4.69707362465388        1.27307279523789
H           -3.03636515260699        4.82007699318172       -0.44179027001323
H           -4.23283183291006        5.18979179853208        0.79188638818349
H           -0.62231370782263        2.79575321857723        2.74502820998388
72
 energy: -5.521044376588 xtb: 6.6.1 (8d0f1dd)
N           -1.51972956981051        2.81250469010235        2.25038265004655
C           -1.55915331578935        2.16465761579260        1.17455865935878
C           -2.74414218701554        2.06950910225774        0.25410633381254
C           -3.31464324521905        0.65879788047264        0.33533980955199
C           -4.29726080959534        0.24929235831231       -0.56759669494861
C           -4.84286261370884       -1.02170448143540       -0.51837491402847
O           -5.81303848343995       -1.47991562673508       -1.36145408983772
C           -6.37427520484481       -0.59769340255374       -2.30146521606253
C           -4.38896008707757       -1.94475998879921        0.45789101900017
O           -4.94063710915083       -3.19462799513860        0.42035268534156
C           -4.66617976163013       -4.15600788017469        1.41653024241475
C           -3.42776385355608       -1.52775181133431        1.35631519567069
C           -2.89763678097134       -0.24365813542465        1.29681864349800
C           -2.18311373950287        2.31432253990486       -1.17162866852108
C           -1.26380104942697        1.18729398354566       -1.67260950620643
C            0.01021350309770        1.13294025449785       -0.91152657603167
N            0.63692001712791       -0.04881358926246       -0.57262935954335
C            2.00636715892401       -0.03854794483100       -0.17218034580887
C            2.94326556874765       -0.54452189748477       -1.29101155262251
C            4.36642098468403       -0.43644485313336       -0.84715158285333
C            5.08260673291799        0.72878055831601       -1.04837395919287
C            6.39233360444397        0.84142251932135       -0.60565341076234
C            7.00246112502993       -0.21013277863554        0.05418270155325
O            8.28013832948587       -0.21237766788393        0.52786645775484
C            9.07395319497615        0.92731774678062        0.32234799936938
C            6.27602733368501       -1.40224774886764        0.27460609011115
O            6.95836238803774       -2.38442393776914        0.92834217936593
C            6.32160030373277       -3.61564037463343        1.15021745355510
C            4.97243581150147       -1.49629266984306       -0.17204482527635
C           -0.04802965178383       -1.30645832976702       -0.64267095591169
C           -3.87380118058789        3.08654451805536        0.57659243131974
C           -4.51535046032905        2.79175894320568        1.93085239587022
C           -3.40226140181612        4.53964665209877        0.54043137605063
H           -4.64075744588570        0.94530120280680       -1.31710761451422
H           -6.82815044139595        0.27611397252739       -1.82101721855052
H           -7.15193388200768       -1.16944330418712       -2.80665261813681
H           -5.63804687704003       -0.26420833057984       -3.04182847719760
H           -4.80500535109497       -3.74747012958694        2.41997346000206
H           -5.39256854628099       -4.94643922904805        1.22878839387400
H           -3.66439316141685       -4.62022875324229        1.38746130283260
H           -3.08180734069012       -2.20206876473987        2.12365674881741
H           -2.16141816256163        0.04641057188010        2.03083761645160
H           -3.01253893447754        2.42431969490714       -1.87150948583784
H           -1.62170288384385        3.25040133156589       -1.17475604682182
H           -1.80380286245233        0.24274296890130       -1.62413903073897
H           -1.03239132328862        1.38827927318274       -2.72892920431494
H           -0.68910786187471        1.65145437244211        0.70452562009987
H            0.65311283361616        1.99448445181800       -0.96004616397312
H            2.12800691257470       -0.67068905789996        0.71425730548969
H            2.30014102413301        0.97964358104019        0.09499673447418
H            2.77587820160372        0.06299241930522       -2.18258282729533
H            2.68963549140932       -1.57928350408105       -1.52610953074334
H            4.62793681799292        1.55924523883912       -1.56784118471544
H            6.92920752599959        1.75830981309157       -0.78921735224317
H            8.65541958108567        1.80876592633195        0.82019714733887
H            9.20771936217259        1.14181717807754       -0.74352373760321
H           10.04036079944250        0.69071927438705        0.76498445633198
H            7.05980107051894       -4.23721588790693        1.65473671476751
H            5.44178865085972       -3.50786909233307        1.79408207038115
H            6.02789544502626       -4.09644431417614        0.21062077676520
H            4.40842063619090       -2.40323377772396       -0.01674921556681
H           -0.21930697598260       -1.62269544002071       -1.67857444292363
H           -1.01497986566135       -1.24466752911928       -0.13490869808993
H            0.55783848682063       -2.06107319079606       -0.14551922987217
H           -4.64210740672495        2.96278088929182       -0.19619291733925
H           -3.78497185457628        2.92480590897886        2.72144508636323
H           -4.89350460196724        1.77307949048409        1.96692379300549
H           -5.34534214125763        3.47415252834315        2.10077833985130
H           -2.61818372278059        4.70125702175804        1.27332034671234
H           -3.03480539024132        4.82208302152271       -0.44332123001373
H           -4.23650982649933        5.19377344809823        0.78518539141084
H           -0.63571872515277        2.80998295532171        2.75551730639418
72
 energy: -4.985142732293 xtb: 6.6.1 (8d0f1dd)
N           -1.52984546820198        2.82667394726530        2.25413270680016
C           -1.56229589040220        2.16953333047820        1.18350153211769
C           -2.74354536928611        2.07277565069877        0.25724974139907
C           -3.31456392317481        0.66219973043178        0.33884206195161
C           -4.29545593633437        0.24952119492116       -0.56412837665072
C           -4.84081977466692       -1.02264569592605       -0.51402055576250
O           -5.81082564867002       -1.47734895404189       -1.36047220477363
C           -6.36675209551894       -0.59389949189922       -2.30310752972586
C           -4.38607930840467       -1.94692855417102        0.46300671935550
O           -4.92329004378777       -3.20516303827047        0.42242419706517
C           -4.66718225924792       -4.17532867735196        1.41968407350591
C           -3.42977422576418       -1.52313372823677        1.36319493611984
C           -2.90131897727644       -0.23837457304321        1.30373285763418
C           -2.17909640919438        2.31907489417419       -1.16717622483433
C           -1.26430459887609        1.19045983969980       -1.67469304321531
C            0.01300317825004        1.13419012523681       -0.91954522958238
N            0.63838146912764       -0.04999646818439       -0.57868889814976
C            2.00768811876737       -0.04053979293033       -0.17774959096686
C            2.94625955342796       -0.54607809853132       -1.29558965993245
C            4.36895443376361       -0.43762199097256       -0.85064703850971
C            5.08493530695075        0.72796453179818       -1.05052106061888
C            6.39416547598006        0.84119483774175       -0.60627480855423
C            7.00419295271812       -0.21041001370975        0.05356137146672
O            8.28161827135363       -0.21265459663413        0.52839378389976
C            9.07569237995823        0.92691286791570        0.32348004657462
C            6.27796074101792       -1.40266545600926        0.27307068969386
O            6.96021381855031       -2.38458281991197        0.92776988022427
C            6.32358165697829       -3.61577811157275        1.14972122605169
C            4.97486456373781       -1.49720802261903       -0.17514276486148
C           -0.04735205222629       -1.30724755760190       -0.65100782866938
C           -3.87522805298876        3.08974672104642        0.57439347047280
C           -4.52174188622097        2.79712396921272        1.92677083556589
C           -3.40459146753200        4.54320901196434        0.53790085260498
H           -4.63552068167416        0.94447943587879       -1.31684130768517
H           -6.81997063112763        0.28181143339613       -1.82523489919903
H           -7.14491033299205       -1.16357944521904       -2.81021871516802
H           -5.62781358738188       -0.26280145832443       -3.04209366762126
H           -4.77763965155260       -3.75753973296301        2.42231770469033
H           -5.42442430266356       -4.93861852005940        1.23587688946889
H           -3.68592912586974       -4.69227300533891        1.39779779956821
H           -3.08564573120524       -2.19670040653952        2.13199638844631
H           -2.16707961121784        0.05366901630515        2.03897407396544
H           -3.00833755708210        2.43757420680846       -1.86628674893087
H           -1.61215208777554        3.25199596916019       -1.16538810505519
H           -1.80464721706662        0.24649296650672       -1.62385215940988
H           -1.04099496855131        1.39188155927882       -2.73334738029807
H           -0.69089133516273        1.65131297759283        0.72598138413113
H            0.65616010509345        1.99521899897510       -0.96739821072306
H            2.13044618844548       -0.67241493830684        0.70884387752630
H            2.30007816149176        0.97794271779462        0.08936199442620
H            2.77917258662042        0.06132480734101       -2.18732943402463
H            2.69278205325909       -1.58086426434305       -1.53091593946274
H            4.62999976570509        1.55838485313941       -1.56970843240349
H            6.93062877971665        1.75868630511233       -0.78826209075098
H            8.65712302396304        1.80832730243646        0.82136276209771
H            9.20992426155579        1.14180829459171       -0.74229636602770
H           10.04199731341324        0.69027225388474        0.76643322256469
H            7.06150342557103       -4.23697931653520        1.65512759383845
H            5.44322139821718       -3.50795839351674        1.79280623412633
H            6.03064607937683       -4.09724496643377        0.21020449171553
H            4.41074372331514       -2.40415050377179       -0.02049679083536
H           -0.21932603088209       -1.62256873105838       -1.68739818519344
H           -1.01422478329328       -1.24581754969634       -0.14312899122343
H            0.55750025135242       -2.06344368681411       -0.15473550520032
H           -4.64108394681168        2.96486375336324       -0.20078062853754
H           -3.79360437825947        2.93200089780732        2.71893251925844
H           -4.89960463315546        1.77835592191278        1.96333494113021
H           -5.35257247087832        3.47958014882958        2.09296666036397
H           -2.62361569879111        4.70576172137203        1.27367275446801
H           -3.03299900162533        4.82409657313145       -0.44476722475783
H           -4.24003764174754        5.19764675958156        0.77828762087540
H           -0.64960288827810        2.82423872755922        2.76501684697572
72
 energy: -4.211771846310 xtb: 6.6.1 (8d0f1dd)
N           -1.53952624501763        2.84170825243624        2.25828160943384
C           -1.56479679820928        2.17496118462595        1.19322890938078
C           -2.74217311809200        2.07588566727288        0.26113817163973
C           -3.31391906084018        0.66535388972553        0.34327533710612
C           -4.29295074523741        0.24922953675774       -0.55995394752150
C           -4.83879820094288       -1.02375969987748       -0.50918597251052
O           -5.80860887312913       -1.47449352156043       -1.35922106036986
C           -6.35918888923771       -0.59048413259035       -2.30527785720944
C           -4.38309766745756       -1.94970752291257        0.46823225517266
O           -4.90606152004490       -3.21631716859626        0.42410802470412
C           -4.66921759613160       -4.19526770409545        1.42291865515858
C           -3.43218097234378       -1.51881572823625        1.37089628749145
C           -2.90519379097503       -0.23336374256782        1.31186849798020
C           -2.17477916567081        2.32379829343218       -1.16215280039897
C           -1.26441383728418        1.19416148174328       -1.67696127001295
C            0.01620107868775        1.13551332407691       -0.92825857605690
N            0.63986781071479       -0.05053201247994       -0.58522966505719
C            2.00887218056366       -0.04201885535199       -0.18312176133867
C            2.94928580960521       -0.54730641121757       -1.29982945031553
C            4.37161666360073       -0.43882856273764       -0.85402636925869